 Entering Gaussian System, Link 0=g16
 Input=Rh_ts.gjf
 Output=Rh_ts.log
 Initial command:
 /usr/local/bin/g16/l1.exe "/usr/local/bin/g16/scratch/Gau-27482.inp" -scrdir="/usr/local/bin/g16/scratch/"
 Entering Link 1 = /usr/local/bin/g16/l1.exe PID=     27484.
  
 Copyright (c) 1988,1990,1992,1993,1995,1998,2003,2009,2016,
            Gaussian, Inc.  All Rights Reserved.
  
 This is part of the Gaussian(R) 16 program.  It is based on
 the Gaussian(R) 09 system (copyright 2009, Gaussian, Inc.),
 the Gaussian(R) 03 system (copyright 2003, Gaussian, Inc.),
 the Gaussian(R) 98 system (copyright 1998, Gaussian, Inc.),
 the Gaussian(R) 94 system (copyright 1995, Gaussian, Inc.),
 the Gaussian 92(TM) system (copyright 1992, Gaussian, Inc.),
 the Gaussian 90(TM) system (copyright 1990, Gaussian, Inc.),
 the Gaussian 88(TM) system (copyright 1988, Gaussian, Inc.),
 the Gaussian 86(TM) system (copyright 1986, Carnegie Mellon
 University), and the Gaussian 82(TM) system (copyright 1983,
 Carnegie Mellon University). Gaussian is a federally registered
 trademark of Gaussian, Inc.
  
 This software contains proprietary and confidential information,
 including trade secrets, belonging to Gaussian, Inc.
  
 This software is provided under written license and may be
 used, copied, transmitted, or stored only in accord with that
 written license.
  
 The following legend is applicable only to US Government
 contracts under FAR:
  
                    RESTRICTED RIGHTS LEGEND
  
 Use, reproduction and disclosure by the US Government is
 subject to restrictions as set forth in subparagraphs (a)
 and (c) of the Commercial Computer Software - Restricted
 Rights clause in FAR 52.227-19.
  
 Gaussian, Inc.
 340 Quinnipiac St., Bldg. 40, Wallingford CT 06492
  
  
 ---------------------------------------------------------------
 Warning -- This program may not be used in any manner that
 competes with the business of Gaussian, Inc. or will provide
 assistance to any competitor of Gaussian, Inc.  The licensee
 of this program is prohibited from giving any competitor of
 Gaussian, Inc. access to this program.  By using this program,
 the user acknowledges that Gaussian, Inc. is engaged in the
 business of creating and licensing software in the field of
 computational chemistry and represents and warrants to the
 licensee that it is not a competitor of Gaussian, Inc. and that
 it will not use this program in any manner prohibited above.
 ---------------------------------------------------------------
  

 Cite this work as:
 Gaussian 16, Revision A.03,
 M. J. Frisch, G. W. Trucks, H. B. Schlegel, G. E. Scuseria, 
 M. A. Robb, J. R. Cheeseman, G. Scalmani, V. Barone, 
 G. A. Petersson, H. Nakatsuji, X. Li, M. Caricato, A. V. Marenich, 
 J. Bloino, B. G. Janesko, R. Gomperts, B. Mennucci, H. P. Hratchian, 
 J. V. Ortiz, A. F. Izmaylov, J. L. Sonnenberg, D. Williams-Young, 
 F. Ding, F. Lipparini, F. Egidi, J. Goings, B. Peng, A. Petrone, 
 T. Henderson, D. Ranasinghe, V. G. Zakrzewski, J. Gao, N. Rega, 
 G. Zheng, W. Liang, M. Hada, M. Ehara, K. Toyota, R. Fukuda, 
 J. Hasegawa, M. Ishida, T. Nakajima, Y. Honda, O. Kitao, H. Nakai, 
 T. Vreven, K. Throssell, J. A. Montgomery, Jr., J. E. Peralta, 
 F. Ogliaro, M. J. Bearpark, J. J. Heyd, E. N. Brothers, K. N. Kudin, 
 V. N. Staroverov, T. A. Keith, R. Kobayashi, J. Normand, 
 K. Raghavachari, A. P. Rendell, J. C. Burant, S. S. Iyengar, 
 J. Tomasi, M. Cossi, J. M. Millam, M. Klene, C. Adamo, R. Cammi, 
 J. W. Ochterski, R. L. Martin, K. Morokuma, O. Farkas, 
 J. B. Foresman, and D. J. Fox, Gaussian, Inc., Wallingford CT, 2016.
 
 ******************************************
 Gaussian 16:  ES64L-G16RevA.03 25-Dec-2016
                14-Oct-2024 
 ******************************************
 %nprocshared=8
 Will use up to    8 processors via shared memory.
 %chk=Rh_ts.chk
 %nosave
 ----------------------------------------------------------------------
 #P opt(ts,calcfc,noeigen,loose,nomicro,gdiis) external="python runner.
 py"
 ----------------------------------------------------------------------

 Warning!  Use of Opt=GDIIS is deprecated since it is seldom a good choice.

 1/5=1,7=-1,10=4,11=1,18=20,19=11,26=1,38=1/1,3;
 2/9=110,12=2,17=6,18=5,40=1/2;
 3/11=9,25=1,30=1,41=9900000,43=2,71=2,140=1/1;
 4/20=17,22=2,24=3,68=-1,113=1,114=1/2;
 6/7=2,8=2,9=2,10=2/1;
 7/25=1,44=-1/16;
 1/5=1,7=-1,10=4,11=1,18=20,19=11,26=1/3(2);
 2/9=110/2;
 99//99;
 2/9=110/2;
 3/11=9,25=1,30=1,41=9900000,43=2,71=1/1;
 4/16=2,20=17,22=1,24=3,68=-1,113=1,114=1/2;
 7/44=-1/16;
 1/5=1,7=-1,11=1,18=20,19=11,26=1/3(-4);
 2/9=110/2;
 6/7=2,8=2,9=2,10=2/1;
 99//99;
 Leave Link    1 at Mon Oct 14 21:31:51 2024, MaxMem=           0 cpu:               0.2 elap:               0.0
 (Enter /usr/local/bin/g16/l101.exe)
 -------------------
 Title Card Required
 -------------------
 Symbolic Z-matrix:
 Charge =  0 Multiplicity = 1
 Rh                    0.01447  -0.49343   0.06116 
 H                     0.24005  -1.56739  -1.06724 
 H                     0.89297  -1.32367   1.02823 
 P                    -2.08631  -1.07007   0.71794 
 H                    -2.92708  -1.5382   -0.27048 
 H                    -2.49684  -1.99959   1.67633 
 H                    -2.9369   -0.06693   1.1513 
 P                    -0.07283   1.56334   1.13988 
 H                     0.55527   2.03729   2.29642 
 H                     0.28885   2.6582    0.37856 
 H                    -1.31523   2.06587   1.4821 
 Cl                   -1.41113   0.81572  -1.28597 
 C                     1.66183  -1.0717   -1.6535 
 H                     2.38364  -1.88295  -1.58792 
 H                     1.41928  -0.81267  -2.6805 
 C                     1.82319   0.02425  -0.72578 
 H                     1.67201   1.02913  -1.11064 
 H                     2.65982  -0.03386  -0.03162 
 
 ITRead=  0  0  0  0  0  0  0  0  0  0  0  0  0  0  0  0  0  0
 MicOpt= -1 -1 -1 -1 -1 -1 -1 -1 -1 -1 -1 -1 -1 -1 -1 -1 -1 -1
 NAtoms=     18 NQM=       18 NQMF=       0 NMMI=      0 NMMIF=      0
                NMic=       0 NMicF=      0.
                    Isotopes and Nuclear Properties:
 (Nuclear quadrupole moments (NQMom) in fm**2, nuclear magnetic moments (NMagM)
  in nuclear magnetons)

  Atom         1           2           3           4           5           6           7           8           9          10
 IAtWgt=         103           1           1          31           1           1           1          31           1           1
 AtmWgt= 102.9048000   1.0078250   1.0078250  30.9737634   1.0078250   1.0078250   1.0078250  30.9737634   1.0078250   1.0078250
 NucSpn=           1           1           1           1           1           1           1           1           1           1
 AtZEff=  -0.0000000  -0.0000000  -0.0000000  -0.0000000  -0.0000000  -0.0000000  -0.0000000  -0.0000000  -0.0000000  -0.0000000
 NQMom=    0.0000000   0.0000000   0.0000000   0.0000000   0.0000000   0.0000000   0.0000000   0.0000000   0.0000000   0.0000000
 NMagM=   -0.0884000   2.7928460   2.7928460   1.1316000   2.7928460   2.7928460   2.7928460   1.1316000   2.7928460   2.7928460
 AtZNuc=  45.0000000   1.0000000   1.0000000  15.0000000   1.0000000   1.0000000   1.0000000  15.0000000   1.0000000   1.0000000

  Atom        11          12          13          14          15          16          17          18
 IAtWgt=           1          35          12           1           1          12           1           1
 AtmWgt=   1.0078250  34.9688527  12.0000000   1.0078250   1.0078250  12.0000000   1.0078250   1.0078250
 NucSpn=           1           3           0           1           1           0           1           1
 AtZEff=  -0.0000000  -0.0000000  -0.0000000  -0.0000000  -0.0000000  -0.0000000  -0.0000000  -0.0000000
 NQMom=    0.0000000  -8.1650000   0.0000000   0.0000000   0.0000000   0.0000000   0.0000000   0.0000000
 NMagM=    2.7928460   0.8218740   0.0000000   2.7928460   2.7928460   0.0000000   2.7928460   2.7928460
 AtZNuc=   1.0000000  17.0000000   6.0000000   1.0000000   1.0000000   6.0000000   1.0000000   1.0000000
 Leave Link  101 at Mon Oct 14 21:31:51 2024, MaxMem=   104857600 cpu:               0.4 elap:               0.1
 (Enter /usr/local/bin/g16/l103.exe)

 GradGradGradGradGradGradGradGradGradGradGradGradGradGradGradGradGradGrad
 Berny optimization.
 Initialization pass.
                           ----------------------------
                           !    Initial Parameters    !
                           ! (Angstroms and Degrees)  !
 --------------------------                            --------------------------
 ! Name  Definition              Value          Derivative Info.                !
 --------------------------------------------------------------------------------
 ! R1    R(1,2)                  1.574          calculate D2E/DX2 analytically  !
 ! R2    R(1,3)                  1.548          calculate D2E/DX2 analytically  !
 ! R3    R(1,4)                  2.2753         calculate D2E/DX2 analytically  !
 ! R4    R(1,8)                  2.3241         calculate D2E/DX2 analytically  !
 ! R5    R(1,12)                 2.3582         calculate D2E/DX2 analytically  !
 ! R6    R(1,16)                 2.0393         calculate D2E/DX2 analytically  !
 ! R7    R(4,5)                  1.3795         calculate D2E/DX2 analytically  !
 ! R8    R(4,6)                  1.3968         calculate D2E/DX2 analytically  !
 ! R9    R(4,7)                  1.3848         calculate D2E/DX2 analytically  !
 ! R10   R(8,9)                  1.3988         calculate D2E/DX2 analytically  !
 ! R11   R(8,10)                 1.3817         calculate D2E/DX2 analytically  !
 ! R12   R(8,11)                 1.3832         calculate D2E/DX2 analytically  !
 ! R13   R(13,14)                1.0879         calculate D2E/DX2 analytically  !
 ! R14   R(13,15)                1.0866         calculate D2E/DX2 analytically  !
 ! R15   R(13,16)                1.4449         calculate D2E/DX2 analytically  !
 ! R16   R(16,17)                1.0866         calculate D2E/DX2 analytically  !
 ! R17   R(16,18)                1.0887         calculate D2E/DX2 analytically  !
 ! A1    A(2,1,3)               90.0337         calculate D2E/DX2 analytically  !
 ! A2    A(2,1,4)               99.5748         calculate D2E/DX2 analytically  !
 ! A3    A(2,1,8)              160.3786         calculate D2E/DX2 analytically  !
 ! A4    A(2,1,12)              93.2042         calculate D2E/DX2 analytically  !
 ! A5    A(2,1,16)              76.6708         calculate D2E/DX2 analytically  !
 ! A6    A(3,1,4)              101.9888         calculate D2E/DX2 analytically  !
 ! A7    A(3,1,8)              101.8874         calculate D2E/DX2 analytically  !
 ! A8    A(3,1,16)              82.7546         calculate D2E/DX2 analytically  !
 ! A9    A(4,1,8)               93.1884         calculate D2E/DX2 analytically  !
 ! A10   A(4,1,12)              75.3702         calculate D2E/DX2 analytically  !
 ! A11   A(8,1,12)              75.5901         calculate D2E/DX2 analytically  !
 ! A12   A(8,1,16)              89.2995         calculate D2E/DX2 analytically  !
 ! A13   A(12,1,16)            100.0679         calculate D2E/DX2 analytically  !
 ! A14   A(1,4,5)              116.2251         calculate D2E/DX2 analytically  !
 ! A15   A(1,4,6)              129.6469         calculate D2E/DX2 analytically  !
 ! A16   A(1,4,7)              118.2859         calculate D2E/DX2 analytically  !
 ! A17   A(5,4,6)               94.972          calculate D2E/DX2 analytically  !
 ! A18   A(5,4,7)               95.4911         calculate D2E/DX2 analytically  !
 ! A19   A(6,4,7)               94.9804         calculate D2E/DX2 analytically  !
 ! A20   A(1,8,9)              131.815          calculate D2E/DX2 analytically  !
 ! A21   A(1,8,10)             115.8276         calculate D2E/DX2 analytically  !
 ! A22   A(1,8,11)             118.0406         calculate D2E/DX2 analytically  !
 ! A23   A(9,8,10)              93.9877         calculate D2E/DX2 analytically  !
 ! A24   A(9,8,11)              94.3389         calculate D2E/DX2 analytically  !
 ! A25   A(10,8,11)             94.7927         calculate D2E/DX2 analytically  !
 ! A26   A(14,13,15)           112.5106         calculate D2E/DX2 analytically  !
 ! A27   A(14,13,16)           116.9254         calculate D2E/DX2 analytically  !
 ! A28   A(15,13,16)           116.8056         calculate D2E/DX2 analytically  !
 ! A29   A(1,16,13)             87.4879         calculate D2E/DX2 analytically  !
 ! A30   A(1,16,17)            104.3607         calculate D2E/DX2 analytically  !
 ! A31   A(1,16,18)            114.9608         calculate D2E/DX2 analytically  !
 ! A32   A(13,16,17)           117.2894         calculate D2E/DX2 analytically  !
 ! A33   A(13,16,18)           117.047          calculate D2E/DX2 analytically  !
 ! A34   A(17,16,18)           112.4652         calculate D2E/DX2 analytically  !
 ! A35   L(3,1,12,2,-1)        183.2379         calculate D2E/DX2 analytically  !
 ! A36   L(4,1,16,2,-1)        176.2457         calculate D2E/DX2 analytically  !
 ! A37   L(3,1,12,2,-2)        177.8607         calculate D2E/DX2 analytically  !
 ! A38   L(4,1,16,2,-2)        175.2886         calculate D2E/DX2 analytically  !
 ! D1    D(2,1,4,5)            -34.2298         calculate D2E/DX2 analytically  !
 ! D2    D(2,1,4,6)             88.0242         calculate D2E/DX2 analytically  !
 ! D3    D(2,1,4,7)           -146.9493         calculate D2E/DX2 analytically  !
 ! D4    D(3,1,4,5)           -126.3175         calculate D2E/DX2 analytically  !
 ! D5    D(3,1,4,6)             -4.0636         calculate D2E/DX2 analytically  !
 ! D6    D(3,1,4,7)            120.963          calculate D2E/DX2 analytically  !
 ! D7    D(8,1,4,5)            130.8126         calculate D2E/DX2 analytically  !
 ! D8    D(8,1,4,6)           -106.9335         calculate D2E/DX2 analytically  !
 ! D9    D(8,1,4,7)             18.0931         calculate D2E/DX2 analytically  !
 ! D10   D(12,1,4,5)            56.6039         calculate D2E/DX2 analytically  !
 ! D11   D(12,1,4,6)           178.8579         calculate D2E/DX2 analytically  !
 ! D12   D(12,1,4,7)           -56.1155         calculate D2E/DX2 analytically  !
 ! D13   D(5,4,16,13)          -34.4189         calculate D2E/DX2 analytically  !
 ! D14   D(5,4,16,17)           82.5702         calculate D2E/DX2 analytically  !
 ! D15   D(5,4,16,18)         -152.7577         calculate D2E/DX2 analytically  !
 ! D16   D(6,4,16,13)           86.566          calculate D2E/DX2 analytically  !
 ! D17   D(6,4,16,17)         -156.4449         calculate D2E/DX2 analytically  !
 ! D18   D(6,4,16,18)          -31.7728         calculate D2E/DX2 analytically  !
 ! D19   D(7,4,16,13)         -145.2632         calculate D2E/DX2 analytically  !
 ! D20   D(7,4,16,17)          -28.2742         calculate D2E/DX2 analytically  !
 ! D21   D(7,4,16,18)           96.398          calculate D2E/DX2 analytically  !
 ! D22   D(2,1,8,9)           -121.705          calculate D2E/DX2 analytically  !
 ! D23   D(2,1,8,10)             0.7507         calculate D2E/DX2 analytically  !
 ! D24   D(2,1,8,11)           112.033          calculate D2E/DX2 analytically  !
 ! D25   D(3,1,8,9)              4.6121         calculate D2E/DX2 analytically  !
 ! D26   D(3,1,8,10)           127.0678         calculate D2E/DX2 analytically  !
 ! D27   D(3,1,8,11)          -121.6499         calculate D2E/DX2 analytically  !
 ! D28   D(4,1,8,9)            107.5754         calculate D2E/DX2 analytically  !
 ! D29   D(4,1,8,10)          -129.9689         calculate D2E/DX2 analytically  !
 ! D30   D(4,1,8,11)           -18.6865         calculate D2E/DX2 analytically  !
 ! D31   D(12,1,8,9)          -178.416          calculate D2E/DX2 analytically  !
 ! D32   D(12,1,8,10)          -55.9603         calculate D2E/DX2 analytically  !
 ! D33   D(12,1,8,11)           55.322          calculate D2E/DX2 analytically  !
 ! D34   D(16,1,8,9)           -77.8336         calculate D2E/DX2 analytically  !
 ! D35   D(16,1,8,10)           44.6221         calculate D2E/DX2 analytically  !
 ! D36   D(16,1,8,11)          155.9044         calculate D2E/DX2 analytically  !
 ! D37   D(2,1,16,13)            1.2556         calculate D2E/DX2 analytically  !
 ! D38   D(2,1,16,17)          118.8039         calculate D2E/DX2 analytically  !
 ! D39   D(2,1,16,18)         -117.5363         calculate D2E/DX2 analytically  !
 ! D40   D(3,1,16,13)           93.0167         calculate D2E/DX2 analytically  !
 ! D41   D(3,1,16,17)         -149.4351         calculate D2E/DX2 analytically  !
 ! D42   D(3,1,16,18)          -25.7753         calculate D2E/DX2 analytically  !
 ! D43   D(8,1,16,13)         -164.9069         calculate D2E/DX2 analytically  !
 ! D44   D(8,1,16,17)          -47.3586         calculate D2E/DX2 analytically  !
 ! D45   D(8,1,16,18)           76.3011         calculate D2E/DX2 analytically  !
 ! D46   D(12,1,16,13)         -89.6768         calculate D2E/DX2 analytically  !
 ! D47   D(12,1,16,17)          27.8715         calculate D2E/DX2 analytically  !
 ! D48   D(12,1,16,18)         151.5312         calculate D2E/DX2 analytically  !
 ! D49   D(14,13,16,1)        -116.3797         calculate D2E/DX2 analytically  !
 ! D50   D(14,13,16,17)        138.7446         calculate D2E/DX2 analytically  !
 ! D51   D(14,13,16,18)          0.4843         calculate D2E/DX2 analytically  !
 ! D52   D(15,13,16,1)         106.083          calculate D2E/DX2 analytically  !
 ! D53   D(15,13,16,17)          1.2073         calculate D2E/DX2 analytically  !
 ! D54   D(15,13,16,18)       -137.053          calculate D2E/DX2 analytically  !
 --------------------------------------------------------------------------------
 Trust Radius=3.00D-01 FncErr=1.00D-07 GrdErr=1.00D-07 EigMax=2.50D+02 EigMin=1.00D-04
 Number of steps in this run=    108 maximum allowed number of steps=    108.
 Search for a saddle point of order  1.
 GradGradGradGradGradGradGradGradGradGradGradGradGradGradGradGradGradGrad

 Leave Link  103 at Mon Oct 14 21:31:51 2024, MaxMem=   104857600 cpu:               0.1 elap:               0.0
 (Enter /usr/local/bin/g16/l202.exe)
                          Input orientation:                          
 ---------------------------------------------------------------------
 Center     Atomic      Atomic             Coordinates (Angstroms)
 Number     Number       Type             X           Y           Z
 ---------------------------------------------------------------------
      1         45           0        0.014470   -0.493429    0.061158
      2          1           0        0.240052   -1.567388   -1.067244
      3          1           0        0.892968   -1.323666    1.028231
      4         15           0       -2.086315   -1.070068    0.717938
      5          1           0       -2.927080   -1.538199   -0.270477
      6          1           0       -2.496836   -1.999595    1.676334
      7          1           0       -2.936903   -0.066935    1.151301
      8         15           0       -0.072833    1.563336    1.139883
      9          1           0        0.555271    2.037293    2.296425
     10          1           0        0.288847    2.658204    0.378558
     11          1           0       -1.315227    2.065869    1.482102
     12         17           0       -1.411133    0.815724   -1.285966
     13          6           0        1.661834   -1.071698   -1.653496
     14          1           0        2.383642   -1.882954   -1.587923
     15          1           0        1.419281   -0.812674   -2.680504
     16          6           0        1.823193    0.024251   -0.725782
     17          1           0        1.672007    1.029132   -1.110643
     18          1           0        2.659821   -0.033863   -0.031620
 ---------------------------------------------------------------------
                    Distance matrix (angstroms):
                    1          2          3          4          5
     1  Rh   0.000000
     2  H    1.574029   0.000000
     3  H    1.547993   2.208328   0.000000
     4  P    2.275340   2.974253   3.006114   0.000000
     5  H    3.139147   3.265947   4.040474   1.379491   0.000000
     6  H    3.344247   3.899304   3.516772   1.396807   2.046477
     7  H    3.175045   4.155279   4.032670   1.384767   2.046012
     8  P    2.324124   3.843272   3.046312   3.341701   4.444700
     9  H    3.419567   4.940380   3.608102   4.373247   5.612477
    10  H    3.179436   4.466358   4.079501   4.433575   5.326653
    11  H    3.215149   4.703043   4.070758   3.318527   4.319596
    12  Cl   2.358171   2.907486   3.904021   2.833322   2.978299
    13  C    2.447088   1.615817   2.801125   4.435349   4.815443
    14  H    3.203627   2.228378   3.062543   5.094928   5.482544
    15  H    3.097115   2.136068   3.780586   4.889260   5.022496
    16  C    2.039300   2.270737   2.399742   4.308841   5.021319
    17  H    2.537466   2.965518   3.273734   4.677107   5.333729
    18  H    2.686576   3.046227   2.430770   4.915421   5.790815
                    6          7          8          9         10
     6  H    0.000000
     7  H    2.050486   0.000000
     8  P    4.342585   3.295574   0.000000
     9  H    5.098660   4.234898   1.398835   0.000000
    10  H    5.580264   4.292898   1.381725   2.033403   0.000000
    11  H    4.238151   2.699651   1.383183   2.040270   2.035122
    12  Cl   4.228474   3.007878   2.869619   4.265267   3.009203
    13  C    5.407706   5.479490   4.213720   5.147056   4.463912
    14  H    5.872652   6.253757   5.035088   5.813728   5.373763
    15  H    5.977189   5.849375   4.739956   5.799883   4.762639
    16  C    5.341232   5.117643   3.073174   3.846258   3.242143
    17  H    5.858300   5.249743   2.897362   3.724460   2.604751
    18  H    5.776878   5.720464   3.375035   3.760134   3.610677
                   11         12         13         14         15
    11  H    0.000000
    12  Cl   3.038793   0.000000
    13  C    5.342209   3.624992   0.000000
    14  H    6.220924   4.666300   1.087862   0.000000
    15  H    5.752463   3.550726   1.086587   1.808100   0.000000
    16  C    4.346566   3.376551   1.444920   2.166754   2.164377
    17  H    4.089097   3.095486   2.169857   3.035533   2.433224
    18  H    4.743547   4.343714   2.168770   2.432590   3.026892
                   16         17         18
    16  C    0.000000
    17  H    1.086627   0.000000
    18  H    1.088662   1.808321   0.000000
 Stoichiometry    C2H12ClP2Rh
 Framework group  C1[X(C2H12ClP2Rh)]
 Deg. of freedom    48
 Full point group                 C1      NOp   1
 Largest Abelian subgroup         C1      NOp   1
 Largest concise Abelian subgroup C1      NOp   1
                         Standard orientation:                         
 ---------------------------------------------------------------------
 Center     Atomic      Atomic             Coordinates (Angstroms)
 Number     Number       Type             X           Y           Z
 ---------------------------------------------------------------------
      1         45           0       -0.273114   -0.279548   -0.358949
      2          1           0       -0.986917   -1.611717    0.080800
      3          1           0       -0.753637   -0.501206   -1.813682
      4         15           0        1.877576   -1.016185   -0.454184
      5          1           0        2.235231   -1.974561    0.471340
      6          1           0        2.571640   -1.605744   -1.513319
      7          1           0        2.889812   -0.130241   -0.125461
      8         15           0        0.354736    1.957827   -0.397813
      9          1           0        0.258423    2.936373   -1.392755
     10          1           0       -0.207357    2.757829    0.578513
     11          1           0        1.660504    2.272583   -0.067518
     12         17           0        0.591071    0.125004    1.797550
     13          6           0       -2.491326   -1.068045    0.308918
     14          1           0       -3.178683   -1.628422   -0.321131
     15          1           0       -2.653516   -1.251724    1.367515
     16          6           0       -2.209957    0.294706   -0.080357
     17          1           0       -2.159505    1.038388    0.710308
     18          1           0       -2.711060    0.668457   -0.971644
 ---------------------------------------------------------------------
 Rotational constants (GHZ):           1.4002098           1.0746530           0.9517126
 Leave Link  202 at Mon Oct 14 21:31:51 2024, MaxMem=   104857600 cpu:               0.0 elap:               0.0
 (Enter /usr/local/bin/g16/l301.exe)
 Standard basis: STO-3G (5D, 7F)
 Ernie: Thresh=  0.10000D-02 Tol=  0.10000D-05 Strict=F.
 There are    78 symmetry adapted cartesian basis functions of A   symmetry.
 There are    76 symmetry adapted basis functions of A   symmetry.
    76 basis functions,   234 primitive gaussians,    78 cartesian basis functions
    58 alpha electrons       58 beta electrons
       nuclear repulsion energy      1085.2808074952 Hartrees.



 Warning!  P  atom    4 may be hypervalent but has no d functions.
 Warning!  P  atom    8 may be hypervalent but has no d functions.



 IExCor=    0 DFT=F Ex=HF Corr=None ExCW=0 ScaHFX=  1.000000
 ScaDFX=  1.000000  1.000000  1.000000  1.000000 ScalE2=  1.000000  1.000000
 IRadAn=      5 IRanWt=     -1 IRanGd=            0 ICorTp=0 IEmpDi=  4
 NAtoms=   18 NActive=   18 NUniq=   18 SFac= 1.00D+00 NAtFMM=   60 NAOKFM=F Big=F
 Integral buffers will be    131072 words long.
 Raffenetti 1 integral format.
 Two-electron integral symmetry is turned on.
 Leave Link  301 at Mon Oct 14 21:31:51 2024, MaxMem=   104857600 cpu:               0.2 elap:               0.0
 (Enter /usr/local/bin/g16/l402.exe)
 External calculation of energy, first and second derivatives.
 Running external command "python runner.py R"
         input file       "/usr/local/bin/g16/scratch/Gau-27484.EIn"
         output file      "/usr/local/bin/g16/scratch/Gau-27484.EOu"
         message file     "/usr/local/bin/g16/scratch/Gau-27484.EMs"
         fchk file        "/usr/local/bin/g16/scratch/Gau-27484.EFC"
         mat. el file     "/usr/local/bin/g16/scratch/Gau-27484.EUF"
-------------------------------------
--  GOPTIMIZER INPUT  ---------------
-------------------------------------

  Number of atoms:      18
  Derivative requested: 2
  Total charge:         0
  Spin:                 1

  Found the following atoms:
  --------------------------

  Atom   0  Rh         -0.273113908567      -0.279548169767      -0.358949327375
  Atom   1  H          -0.986916622277      -1.611716636297       0.080799691623
  Atom   2  H          -0.753637295860      -0.501206309318      -1.813682066725
  Atom   3  P           1.877575838756      -1.016185186891      -0.454183967638
  Atom   4  H           2.235230708126      -1.974561133485       0.471340300016
  Atom   5  H           2.571639760161      -1.605743820785      -1.513318859042
  Atom   6  H           2.889812247586      -0.130240584912      -0.125460883474
  Atom   7  P           0.354736177896       1.957826531905      -0.397813422688
  Atom   8  H           0.258423377325       2.936373425254      -1.392755175954
  Atom   9  H          -0.207356705892       2.757828522921       0.578512608828
  Atom  10  H           1.660504095599       2.272582625235      -0.067518315100
  Atom  11  Cl          0.591071262848       0.125004013022       1.797550170260
  Atom  12  C          -2.491326083073      -1.068045339696       0.308917808721
  Atom  13  H          -3.178683181511      -1.628421942342      -0.321130635259
  Atom  14  H          -2.653516170213      -1.251724140259       1.367515204120
  Atom  15  C          -2.209957494279       0.294706125432      -0.080357459804
  Atom  16  H          -2.159504585375       1.038387536422       0.710307854891
  Atom  17  H          -2.711059996203       0.668456986061      -0.971644125091

-------------------------------------
-------------------------------------
-------------------------------------

Normal termination of GauOptimizer

 Recovered energy= -1336.45385377     dipole=      0.000000000000      0.000000000000      0.000000000000
 Energy=    -1336.45385     NIter=   0.
 Dipole moment=       0.000000       0.000000       0.000000
 Leave Link  402 at Mon Oct 14 21:31:56 2024, MaxMem=   104857600 cpu:              35.2 elap:               5.0
 (Enter /usr/local/bin/g16/l601.exe)
 Leave Link  601 at Mon Oct 14 21:31:56 2024, MaxMem=   104857600 cpu:               0.1 elap:               0.0
 (Enter /usr/local/bin/g16/l716.exe)
 Dipole        = 0.00000000D+00 0.00000000D+00 0.00000000D+00
 Polarizability= 3.06746095D-01-7.14403810D-03 2.82037616D-01
                 2.68066060D-02 1.16032157D-02 3.48323286D-01
 ***** Axes restored to original set *****
 -------------------------------------------------------------------
 Center     Atomic                   Forces (Hartrees/Bohr)
 Number     Number              X              Y              Z
 -------------------------------------------------------------------
      1       45           0.020398163    0.004687960    0.022412323
      2        1           0.015858409   -0.028167693   -0.030012055
      3        1          -0.001722700   -0.004651481    0.006755851
      4       15          -0.000304541   -0.011509541    0.001459864
      5        1          -0.008066982   -0.006710368   -0.012799611
      6        1          -0.001051759   -0.012411289    0.013655093
      7        1          -0.005865703    0.011528856    0.005665285
      8       15          -0.000964467   -0.004192322    0.006269750
      9        1           0.010075720   -0.001296251    0.013666921
     10        1           0.006794179    0.006769800   -0.011329363
     11        1          -0.013435404    0.001907713    0.003922807
     12       17          -0.015577397    0.021260449   -0.031937869
     13        6          -0.015362076    0.027847959    0.031715449
     14        1          -0.008614773   -0.013054973    0.008683150
     15        1          -0.014700760   -0.001765825   -0.003170437
     16        6           0.029098769    0.007137557   -0.022683819
     17        1           0.002303817    0.004784038   -0.007483475
     18        1           0.001137510   -0.002164594    0.005210141
 -------------------------------------------------------------------
 Cartesian Forces:  Max     0.031937869 RMS     0.013934062
 FormGI is forming the generalized inverse of G from B-inverse, IUseBI=4.
 Leave Link  716 at Mon Oct 14 21:31:56 2024, MaxMem=   104857600 cpu:               0.1 elap:               0.0
 (Enter /usr/local/bin/g16/l103.exe)

 GradGradGradGradGradGradGradGradGradGradGradGradGradGradGradGradGradGrad
 Berny optimization.
 Red2BG is reusing G-inverse.
 Internal  Forces:  Max     0.103227781 RMS     0.015442395
 Search for a saddle point.
 Step number   1 out of a maximum of  108
 All quantities printed in internal units (Hartrees-Bohrs-Radians)
 Swapping is turned off.
 Second derivative matrix not updated -- analytic derivatives used.
 ITU=  0
     Eigenvalues ---   -3.42972  -1.74363  -1.46263  -1.14998  -1.09933
     Eigenvalues ---   -0.81444  -0.75831  -0.61892  -0.45318  -0.35047
     Eigenvalues ---   -0.30626  -0.23461  -0.21128  -0.15484  -0.13843
     Eigenvalues ---   -0.10834  -0.07268  -0.06514  -0.04277  -0.03655
     Eigenvalues ---   -0.02976  -0.02105  -0.00842  -0.00177  -0.00023
     Eigenvalues ---    0.00735   0.00890   0.01708   0.02817   0.03902
     Eigenvalues ---    0.04583   0.05968   0.09010   0.09361   0.12090
     Eigenvalues ---    0.16289   0.18718   0.28783   0.29961   0.42642
     Eigenvalues ---    0.48458   0.56795   0.72245   0.98465   1.07674
     Eigenvalues ---    1.44791   1.82037   2.04584
 Eigenvectors required to have negative eigenvalues:
                          A9        A36       A27       A28       A2
   1                   -0.35429   0.34293  -0.29766   0.26207   0.25373
                          A29       A11       D43       D9        D11
   1                    0.18544   0.17656  -0.17066   0.15449  -0.15104
 Eigenvalue     2 is  -1.74D+00 should be greater than     0.000000 Eigenvector:
                          R3        A29       A27       A15       A33
   1                   -0.36072  -0.32820   0.32143  -0.23553   0.18656
                          D46       A31       R15       A9        D52
   1                    0.17814   0.17088   0.16681  -0.16015  -0.15541
 Eigenvalue     3 is  -1.46D+00 should be greater than     0.000000 Eigenvector:
                          R7        A28       R1        A27       A29
   1                    0.42156  -0.40633  -0.29828   0.25858   0.23547
                          D16       D13       D46       A32       R3
   1                    0.20256   0.17359   0.17044  -0.15703   0.13837
 Eigenvalue     4 is  -1.15D+00 should be greater than     0.000000 Eigenvector:
                          A14       A8        R3        A29       R13
   1                   -0.33125   0.25779  -0.22599   0.22190  -0.22145
                          A38       R14       A18       A15       D49
   1                   -0.20222  -0.19992   0.19480   0.17515  -0.17069
 Eigenvalue     5 is  -1.10D+00 should be greater than     0.000000 Eigenvector:
                          A20       R14       A29       A15       R8
   1                    0.35187   0.26998   0.25669  -0.23293   0.21634
                          R3        R15       A12       R9        A31
   1                    0.20546   0.19895   0.17931   0.17194  -0.16374
 Eigenvalue     6 is  -8.14D-01 should be greater than     0.000000 Eigenvector:
                          R6        A14       R13       A15       A27
   1                   -0.30949   0.27802  -0.26908  -0.21887  -0.21452
                          D49       A37       A30       A13       R16
   1                   -0.19974   0.18589  -0.17856  -0.17330  -0.16462
 Eigenvalue     7 is  -7.58D-01 should be greater than     0.000000 Eigenvector:
                          R14       R8        A27       A17       A26
   1                    0.43155   0.28716  -0.28169   0.26369   0.25232
                          A15       A14       A6        R3        A19
   1                   -0.21679  -0.20395  -0.18333  -0.15788   0.15695
 Eigenvalue     8 is  -6.19D-01 should be greater than     0.000000 Eigenvector:
                          A20       R15       A14       A26       R11
   1                    0.33116  -0.31117   0.22217   0.21037  -0.20757
                          A36       R9        R14       A25       A28
   1                   -0.18874   0.18635  -0.16648   0.16154  -0.15978
 Eigenvalue     9 is  -4.53D-01 should be greater than     0.000000 Eigenvector:
                          R15       R16       A22       A21       R4
   1                   -0.43745  -0.33095  -0.29591   0.27144  -0.24877
                          A23       A24       A28       R13       R10
   1                   -0.22233   0.19185   0.18498  -0.17018  -0.15565
 Eigenvalue    10 is  -3.50D-01 should be greater than     0.000000 Eigenvector:
                          R7        R1        R4        R15       A23
   1                    0.32636   0.29103   0.25622  -0.23606  -0.22303
                          R14       R9        R3        A3        A21
   1                    0.18736  -0.18638  -0.17882  -0.17680   0.15691
 Eigenvalue    11 is  -3.06D-01 should be greater than     0.000000 Eigenvector:
                          R9        R4        R5        R2        R1
   1                   -0.34944  -0.27187  -0.26409   0.22531  -0.21979
                          A29       A24       A22       R13       A1
   1                    0.19524   0.18630  -0.17338   0.16162   0.15321
 Eigenvalue    12 is  -2.35D-01 should be greater than     0.000000 Eigenvector:
                          R11       R9        A30       D26       D50
   1                   -0.31901  -0.24267   0.22252  -0.21710  -0.21520
                          R13       D32       R1        R10       D35
   1                   -0.20083  -0.19950  -0.19745  -0.19093  -0.18586
 Eigenvalue    13 is  -2.11D-01 should be greater than     0.000000 Eigenvector:
                          R10       R11       A24       D49       A27
   1                    0.36582   0.25835   0.20712  -0.20599  -0.18805
                          A22       A23       D14       D50       D31
   1                   -0.17908   0.17840  -0.17244  -0.16395  -0.15154
 Eigenvalue    14 is  -1.55D-01 should be greater than     0.000000 Eigenvector:
                          R2        R5        R1        A19       R9
   1                   -0.36737   0.36474   0.27723   0.20412  -0.19454
                          A22       R16       A2        A24       A26
   1                   -0.19428   0.17544  -0.16933   0.16568  -0.16554
 Eigenvalue    15 is  -1.38D-01 should be greater than     0.000000 Eigenvector:
                          R5        R2        R4        R16       R7
   1                   -0.49348  -0.42465   0.24002  -0.20592  -0.20327
                          D7        A25       R9        D13       A27
   1                    0.15412   0.15357  -0.15058   0.14010  -0.13938
 Eigenvalue    16 is  -1.08D-01 should be greater than     0.000000 Eigenvector:
                          R11       R7        R8        A25       R16
   1                    0.33894  -0.33396  -0.26384  -0.25633   0.23792
                          R1        A23       R15       A21       A22
   1                   -0.22579  -0.20615  -0.17230   0.16526   0.16526
 Eigenvalue    17 is  -7.27D-02 should be greater than     0.000000 Eigenvector:
                          R13       R16       R1        D20       R11
   1                   -0.33914  -0.21901   0.19992   0.19622   0.19368
                          A21       D9        R2        D3        R9
   1                   -0.18589   0.18306   0.17129   0.16514   0.16276
 Eigenvalue    18 is  -6.51D-02 should be greater than     0.000000 Eigenvector:
                          R8        R13       A15       D52       D9
   1                   -0.38938  -0.25837  -0.23050   0.21604  -0.20748
                          D19       R3        A18       D12       R2
   1                   -0.19501   0.18759   0.16539  -0.16297   0.16256
 Eigenvalue    19 is  -4.28D-02 should be greater than     0.000000 Eigenvector:
                          R17       R10       D54       R12       R9
   1                    0.28427  -0.28308  -0.24662  -0.24617   0.24309
                          R6        R1        A34       R2        D50
   1                    0.23967  -0.18716   0.18054  -0.17573   0.17180
 Eigenvalue    20 is  -3.65D-02 should be greater than     0.000000 Eigenvector:
                          R11       R14       D53       R4        D54
   1                   -0.31700   0.23548   0.23199   0.20975   0.20590
                          A25       R12       D24       D27       A26
   1                   -0.20345  -0.19779  -0.19003  -0.18533  -0.15103
 Eigenvalue    21 is  -2.98D-02 should be greater than     0.000000 Eigenvector:
                          R12       R6        D50       R16       D51
   1                    0.30884   0.29561   0.28064  -0.24553   0.20995
                          D17       D49       R5        A32       R14
   1                   -0.17227   0.16927   0.16869  -0.16268  -0.16259
 Eigenvalue    22 is  -2.10D-02 should be greater than     0.000000 Eigenvector:
                          R12       D22       R11       R6        R10
   1                   -0.36199   0.28883   0.28694   0.26811  -0.21712
                          R13       D49       D31       A21       D53
   1                    0.20201  -0.17913   0.17525  -0.16681   0.15697
 Eigenvalue    23 is  -8.42D-03 should be greater than     0.000000 Eigenvector:
                          D51       R13       A34       D24       R17
   1                   -0.27477   0.26207   0.23349  -0.22272  -0.21834
                          R14       D22       A31       R3        R10
   1                   -0.19950  -0.19002  -0.18589   0.17322  -0.16557
 Eigenvalue    24 is  -1.77D-03 should be greater than     0.000000 Eigenvector:
                          R17       D51       R10       D23       D54
   1                    0.36630  -0.29338   0.26175   0.24778  -0.23142
                          R8        D22       A31       R12       R1
   1                   -0.20661   0.19996  -0.18687   0.17050   0.16117
 Eigenvalue    25 is  -2.29D-04 should be greater than     0.000000 Eigenvector:
                          D24       D23       D25       R14       R2
   1                    0.38750   0.32925  -0.21590  -0.20722   0.20572
                          A27       D28       D34       D16       R17
   1                   -0.17176  -0.15933  -0.15828   0.14503   0.14287
 Angle between quadratic step and forces=  85.69 degrees.
 Linear search not attempted -- option 19 set.
 Maximum step size (   0.300) exceeded in Quadratic search.
    -- Step size scaled by   0.017
 Iteration  1 RMS(Cart)=  0.02981577 RMS(Int)=  0.00394494
 Iteration  2 RMS(Cart)=  0.00327058 RMS(Int)=  0.00117711
 Iteration  3 RMS(Cart)=  0.00003940 RMS(Int)=  0.00117694
 Iteration  4 RMS(Cart)=  0.00000012 RMS(Int)=  0.00117694
 ITry= 1 IFail=0 DXMaxC= 1.14D-01 DCOld= 1.00D+10 DXMaxT= 3.00D-01 DXLimC= 3.00D+00 Rises=F
 Variable       Old X    -DE/DX   Delta X   Delta X   Delta X     New X
                                 (Linear)    (Quad)   (Total)
    R1        2.97448   0.04301   0.00000   0.05057   0.05057   3.02506
    R2        2.92528   0.00574   0.00000   0.11249   0.11249   3.03777
    R3        4.29977   0.02124   0.00000  -0.03343  -0.03343   4.26634
    R4        4.39196   0.00855   0.00000   0.02096   0.02096   4.41292
    R5        4.45630   0.03946   0.00000   0.00051   0.00051   4.45680
    R6        3.85372  -0.00437   0.00000   0.06999   0.06999   3.92371
    R7        2.60686   0.01636   0.00000  -0.03909  -0.03909   2.56777
    R8        2.63958   0.01794   0.00000   0.03545   0.03545   2.67504
    R9        2.61683   0.01373   0.00000  -0.05778  -0.05778   2.55905
   R10        2.64341   0.01538   0.00000   0.01314   0.01314   2.65656
   R11        2.61108   0.01339   0.00000  -0.01860  -0.01860   2.59248
   R12        2.61384   0.01373   0.00000   0.04461   0.04461   2.65845
   R13        2.05576   0.00454   0.00000   0.06766   0.06766   2.12342
   R14        2.05335   0.00586   0.00000  -0.11004  -0.11004   1.94331
   R15        2.73050  -0.02946   0.00000  -0.01833  -0.01833   2.71217
   R16        2.05343   0.00675   0.00000   0.01998   0.01998   2.07341
   R17        2.05727   0.00431   0.00000   0.08132   0.08132   2.13860
    A1        1.57138   0.00105   0.00000  -0.00895  -0.01189   1.55949
    A2        1.73791  -0.00378   0.00000   0.03197   0.03473   1.77264
    A3        2.79913   0.00232   0.00000  -0.04313  -0.04843   2.75070
    A4        1.62672  -0.00403   0.00000   0.00555   0.00732   1.63404
    A5        1.33816  -0.01342   0.00000  -0.04283  -0.04553   1.29263
    A6        1.78004  -0.01039   0.00000   0.01766   0.01784   1.79788
    A7        1.77827  -0.00275   0.00000  -0.01263  -0.01570   1.76257
    A8        1.44434   0.00458   0.00000  -0.02077  -0.02098   1.42336
    A9        1.62644   0.00516   0.00000   0.03680   0.03928   1.66572
   A10        1.31546   0.01458   0.00000   0.02109   0.02096   1.33642
   A11        1.31930   0.00452   0.00000   0.00823   0.00992   1.32921
   A12        1.55857   0.01345   0.00000  -0.02496  -0.02719   1.53138
   A13        1.74652  -0.00810   0.00000  -0.01726  -0.01704   1.72948
   A14        2.02851   0.00026   0.00000   0.00918   0.00917   2.03769
   A15        2.26277  -0.00595   0.00000  -0.00128  -0.00137   2.26139
   A16        2.06448  -0.00276   0.00000  -0.01834  -0.01839   2.04609
   A17        1.65757   0.00568   0.00000   0.00829   0.00824   1.66582
   A18        1.66663   0.00180   0.00000  -0.00080  -0.00075   1.66588
   A19        1.65772   0.00400   0.00000   0.00571   0.00562   1.66334
   A20        2.30061  -0.00908   0.00000   0.02115   0.01914   2.31975
   A21        2.02157  -0.00565   0.00000   0.02962   0.02887   2.05044
   A22        2.06020   0.00015   0.00000  -0.05118  -0.05149   2.00870
   A23        1.64039   0.00925   0.00000   0.01878   0.01706   1.65746
   A24        1.64652   0.00601   0.00000  -0.04132  -0.04261   1.60392
   A25        1.65445   0.00478   0.00000   0.03231   0.03350   1.68794
   A26        1.96368   0.00046   0.00000  -0.00908  -0.00854   1.95514
   A27        2.04073   0.00780   0.00000  -0.09524  -0.09484   1.94590
   A28        2.03864   0.00581   0.00000   0.07363   0.07401   2.11265
   A29        1.52695  -0.10323   0.00000  -0.01978  -0.01991   1.50705
   A30        1.82144   0.03379   0.00000  -0.00318  -0.00342   1.81802
   A31        2.00644   0.02497   0.00000   0.00131   0.00145   2.00789
   A32        2.04709   0.01893   0.00000  -0.01837  -0.01850   2.02859
   A33        2.04286   0.03834   0.00000   0.02247   0.02242   2.06528
   A34        1.96289  -0.02445   0.00000   0.00840   0.00846   1.97134
   A35        3.19810  -0.00298   0.00000  -0.00341  -0.00457   3.19353
   A36        3.07607  -0.01720   0.00000  -0.01086  -0.01079   3.06527
   A37        3.10425   0.00359   0.00000   0.04031   0.04035   3.14460
   A38        3.05936   0.00648   0.00000   0.00301   0.00284   3.06220
    D1       -0.59742  -0.00120   0.00000  -0.00003  -0.00191  -0.59933
    D2        1.53631   0.00224   0.00000   0.02454   0.02274   1.55905
    D3       -2.56475  -0.00178   0.00000   0.00773   0.00592  -2.55883
    D4       -2.20466   0.00037   0.00000  -0.00085  -0.00091  -2.20557
    D5       -0.07092   0.00381   0.00000   0.02372   0.02374  -0.04719
    D6        2.11120  -0.00021   0.00000   0.00691   0.00691   2.11811
    D7        2.28311   0.00311   0.00000   0.00178   0.00343   2.28654
    D8       -1.86634   0.00655   0.00000   0.02635   0.02808  -1.83826
    D9        0.31578   0.00253   0.00000   0.00954   0.01125   0.32703
   D10        0.98792  -0.00204   0.00000   0.00098   0.00101   0.98894
   D11        3.12166   0.00141   0.00000   0.02555   0.02566  -3.13587
   D12       -0.97940  -0.00261   0.00000   0.00875   0.00883  -0.97057
   D13       -0.60072  -0.00143   0.00000   0.06036   0.06046  -0.54026
   D14        1.44112  -0.00565   0.00000   0.03547   0.03555   1.47668
   D15       -2.66612   0.01243   0.00000   0.04981   0.04982  -2.61630
   D16        1.51086  -0.00764   0.00000   0.07917   0.07918   1.59004
   D17       -2.73048  -0.01186   0.00000   0.05428   0.05427  -2.67621
   D18       -0.55454   0.00622   0.00000   0.06862   0.06854  -0.48600
   D19       -2.53532  -0.00430   0.00000   0.06646   0.06653  -2.46879
   D20       -0.49348  -0.00852   0.00000   0.04157   0.04163  -0.45185
   D21        1.68246   0.00956   0.00000   0.05591   0.05589   1.73835
   D22       -2.12415   0.00345   0.00000   0.07408   0.07194  -2.05221
   D23        0.01310   0.00164   0.00000   0.17186   0.17011   0.18321
   D24        1.95535   0.00388   0.00000   0.20067   0.19823   2.15358
   D25        0.08050   0.00280   0.00000  -0.10585  -0.10530  -0.02480
   D26        2.21775   0.00098   0.00000  -0.00806  -0.00713   2.21062
   D27       -2.12319   0.00323   0.00000   0.02074   0.02099  -2.10220
   D28        1.87755  -0.00699   0.00000  -0.08062  -0.08005   1.79750
   D29       -2.26838  -0.00880   0.00000   0.01717   0.01812  -2.25027
   D30       -0.32614  -0.00656   0.00000   0.04597   0.04624  -0.27990
   D31       -3.11395   0.00732   0.00000  -0.06801  -0.06783   3.10141
   D32       -0.97669   0.00551   0.00000   0.02978   0.03034  -0.94635
   D33        0.96555   0.00775   0.00000   0.05858   0.05846   1.02401
   D34       -1.35845  -0.00487   0.00000  -0.07977  -0.07907  -1.43752
   D35        0.77880  -0.00668   0.00000   0.01801   0.01909   0.79790
   D36        2.72105  -0.00444   0.00000   0.04682   0.04722   2.76826
   D37        0.02192  -0.00012   0.00000   0.06173   0.06361   0.08552
   D38        2.07352  -0.00512   0.00000   0.03717   0.03912   2.11264
   D39       -2.05140   0.00405   0.00000   0.04628   0.04821  -2.00318
   D40        1.62345   0.00167   0.00000   0.06321   0.06340   1.68685
   D41       -2.60813  -0.00333   0.00000   0.03866   0.03891  -2.56923
   D42       -0.44986   0.00585   0.00000   0.04777   0.04801  -0.40186
   D43       -2.87817  -0.00307   0.00000   0.05461   0.05265  -2.82552
   D44       -0.82656  -0.00807   0.00000   0.03006   0.02816  -0.79840
   D45        1.33171   0.00110   0.00000   0.03916   0.03726   1.36896
   D46       -1.56516   0.00451   0.00000   0.05935   0.05901  -1.50614
   D47        0.48645  -0.00049   0.00000   0.03479   0.03452   0.52097
   D48        2.64472   0.00869   0.00000   0.04390   0.04362   2.68834
   D49       -2.03121   0.01232   0.00000   0.02333   0.02340  -2.00781
   D50        2.42155   0.02633   0.00000   0.03893   0.03869   2.46024
   D51        0.00845  -0.00791   0.00000   0.01864   0.01848   0.02693
   D52        1.85150  -0.00621   0.00000   0.06704   0.06733   1.91883
   D53        0.02107   0.00780   0.00000   0.08264   0.08262   0.10370
   D54       -2.39203  -0.02644   0.00000   0.06235   0.06241  -2.32962
         Item               Value     Threshold  Converged?
 Maximum Force            0.103228     0.002500     NO 
 RMS     Force            0.015442     0.001667     NO 
 Maximum Displacement     0.113622     0.010000     NO 
 RMS     Displacement     0.030177     0.006667     NO 
 Predicted change in Energy=-6.435546D-03
 GradGradGradGradGradGradGradGradGradGradGradGradGradGradGradGradGradGrad

 Leave Link  103 at Mon Oct 14 21:31:56 2024, MaxMem=   104857600 cpu:               0.3 elap:               0.1
 (Enter /usr/local/bin/g16/l202.exe)
                          Input orientation:                          
 ---------------------------------------------------------------------
 Center     Atomic      Atomic             Coordinates (Angstroms)
 Number     Number       Type             X           Y           Z
 ---------------------------------------------------------------------
      1         45           0       -0.018445   -0.497693    0.068200
      2          1           0        0.277895   -1.572487   -1.080509
      3          1           0        0.917854   -1.337000    1.069715
      4         15           0       -2.102289   -1.083577    0.709532
      5          1           0       -2.930089   -1.556134   -0.258864
      6          1           0       -2.514753   -2.006161    1.700769
      7          1           0       -2.929306   -0.089581    1.111838
      8         15           0       -0.040580    1.586538    1.121156
      9          1           0        0.538571    2.064766    2.309485
     10          1           0        0.310795    2.679206    0.369712
     11          1           0       -1.313663    2.050013    1.499981
     12         17           0       -1.406500    0.817280   -1.312517
     13          6           0        1.601708   -1.029854   -1.687718
     14          1           0        2.351601   -1.858682   -1.572286
     15          1           0        1.411961   -0.816376   -2.675613
     16          6           0        1.825868    0.018690   -0.733695
     17          1           0        1.682949    1.043936   -1.097417
     18          1           0        2.701489   -0.079541   -0.023499
 ---------------------------------------------------------------------
                    Distance matrix (angstroms):
                    1          2          3          4          5
     1  Rh   0.000000
     2  H    1.600791   0.000000
     3  H    1.607521   2.255763   0.000000
     4  P    2.257648   3.018039   3.052084   0.000000
     5  H    3.115275   3.311575   4.076739   1.358806   0.000000
     6  H    3.342500   3.965156   3.553701   1.415569   2.053092
     7  H    3.119110   4.158310   4.044560   1.354192   2.007387
     8  P    2.335214   3.863702   3.077063   3.398469   4.486658
     9  H    3.449612   4.978918   3.640453   4.409768   5.633731
    10  H    3.208114   4.492340   4.121703   4.482966   5.369967
    11  H    3.196623   4.723822   4.078806   3.326579   4.325583
    12  Cl   2.358439   2.932917   3.964666   2.861130   3.010748
    13  C    2.447721   1.554231   2.857523   4.412402   4.780772
    14  H    3.187569   2.150350   3.050894   5.064051   5.450950
    15  H    3.110648   2.098134   3.813486   4.886774   5.024074
    16  C    2.076337   2.246852   2.432010   4.327622   5.032361
    17  H    2.574884   2.969871   3.309183   4.703127   5.361311
    18  H    2.753416   3.036439   2.440835   4.962026   5.826696
                    6          7          8          9         10
     6  H    0.000000
     7  H    2.047430   0.000000
     8  P    4.400564   3.339790   0.000000
     9  H    5.125013   4.254614   1.405789   0.000000
    10  H    5.630994   4.326105   1.371880   2.047471   0.000000
    11  H    4.235030   2.709026   1.406790   2.021456   2.076597
    12  Cl   4.275504   3.003137   2.894868   4.296326   3.040685
    13  C    5.420357   5.408486   4.175211   5.165711   4.433577
    14  H    5.866518   6.182412   4.984646   5.809360   5.341224
    15  H    5.998948   5.806859   4.722216   5.823658   4.765046
    16  C    5.372859   5.101901   3.063045   3.886451   3.254427
    17  H    5.895221   5.238184   2.861299   3.736131   2.590247
    18  H    5.821867   5.744122   3.406610   3.836545   3.671609
                   11         12         13         14         15
    11  H    0.000000
    12  Cl   3.072197   0.000000
    13  C    5.305318   3.549930   0.000000
    14  H    6.176640   4.620777   1.123663   0.000000
    15  H    5.751591   3.531372   1.028354   1.785121   0.000000
    16  C    4.355713   3.379495   1.435219   2.122300   2.153996
    17  H    4.091253   3.105212   2.157698   3.016254   2.454567
    18  H    4.793478   4.397889   2.209579   2.384639   3.039657
                   16         17         18
    16  C    0.000000
    17  H    1.097200   0.000000
    18  H    1.131697   1.858204   0.000000
 Stoichiometry    C2H12ClP2Rh
 Framework group  C1[X(C2H12ClP2Rh)]
 Deg. of freedom    48
 Full point group                 C1      NOp   1
 RotChk:  IX=0 Diff= 6.56D-02
 Largest Abelian subgroup         C1      NOp   1
 Largest concise Abelian subgroup C1      NOp   1
                         Standard orientation:                         
 ---------------------------------------------------------------------
 Center     Atomic      Atomic             Coordinates (Angstroms)
 Number     Number       Type             X           Y           Z
 ---------------------------------------------------------------------
      1         45           0       -0.231996   -0.293782   -0.369531
      2          1           0       -0.964191   -1.654244    0.049473
      3          1           0       -0.724425   -0.516424   -1.883489
      4         15           0        1.928689   -0.944838   -0.436885
      5          1           0        2.312936   -1.883988    0.466832
      6          1           0        2.675894   -1.480546   -1.513239
      7          1           0        2.862441   -0.031884   -0.078474
      8         15           0        0.226275    1.995986   -0.382729
      9          1           0        0.156181    2.980403   -1.383855
     10          1           0       -0.369656    2.766460    0.583341
     11          1           0        1.554317    2.340369   -0.071660
     12         17           0        0.539139    0.139914    1.816674
     13          6           0       -2.410935   -1.161169    0.331331
     14          1           0       -3.071826   -1.741527   -0.367974
     15          1           0       -2.612244   -1.373333    1.317218
     16          6           0       -2.234429    0.191908   -0.113508
     17          1           0       -2.226125    0.962089    0.667901
     18          1           0       -2.771124    0.522611   -1.053366
 ---------------------------------------------------------------------
 Rotational constants (GHZ):           1.3755461           1.0768205           0.9521284
 Leave Link  202 at Mon Oct 14 21:31:56 2024, MaxMem=   104857600 cpu:               0.0 elap:               0.0
 (Enter /usr/local/bin/g16/l301.exe)
 Standard basis: STO-3G (5D, 7F)
 Ernie: Thresh=  0.10000D-02 Tol=  0.10000D-05 Strict=F.
 There are    78 symmetry adapted cartesian basis functions of A   symmetry.
 There are    76 symmetry adapted basis functions of A   symmetry.
    76 basis functions,   234 primitive gaussians,    78 cartesian basis functions
    58 alpha electrons       58 beta electrons
       nuclear repulsion energy      1082.1679239997 Hartrees.



 Warning!  P  atom    4 may be hypervalent but has no d functions.
 Warning!  P  atom    8 may be hypervalent but has no d functions.



 IExCor=    0 DFT=F Ex=HF Corr=None ExCW=0 ScaHFX=  1.000000
 ScaDFX=  1.000000  1.000000  1.000000  1.000000 ScalE2=  1.000000  1.000000
 IRadAn=      5 IRanWt=     -1 IRanGd=            0 ICorTp=0 IEmpDi=  4
 NAtoms=   18 NActive=   18 NUniq=   18 SFac= 1.00D+00 NAtFMM=   60 NAOKFM=F Big=F
 Integral buffers will be    131072 words long.
 Raffenetti 1 integral format.
 Two-electron integral symmetry is turned on.
 Leave Link  301 at Mon Oct 14 21:31:56 2024, MaxMem=   104857600 cpu:               0.2 elap:               0.0
 (Enter /usr/local/bin/g16/l402.exe)
 External calculation of energy and first derivatives.
 Running external command "python runner.py R"
         input file       "/usr/local/bin/g16/scratch/Gau-27484.EIn"
         output file      "/usr/local/bin/g16/scratch/Gau-27484.EOu"
         message file     "/usr/local/bin/g16/scratch/Gau-27484.EMs"
         fchk file        "/usr/local/bin/g16/scratch/Gau-27484.EFC"
         mat. el file     "/usr/local/bin/g16/scratch/Gau-27484.EUF"
-------------------------------------
--  GOPTIMIZER INPUT  ---------------
-------------------------------------

  Number of atoms:      18
  Derivative requested: 1
  Total charge:         0
  Spin:                 1

  Found the following atoms:
  --------------------------

  Atom   0  Rh         -0.231996433026      -0.293781967975      -0.369530873633
  Atom   1  H          -0.964191217632      -1.654244296510       0.049473393345
  Atom   2  H          -0.724425442575      -0.516423577309      -1.883488691434
  Atom   3  P           1.928689362585      -0.944837676711      -0.436885216110
  Atom   4  H           2.312935637219      -1.883987765588       0.466832194309
  Atom   5  H           2.675894236707      -1.480546055543      -1.513238857872
  Atom   6  H           2.862441312974      -0.031884319568      -0.078474317495
  Atom   7  P           0.226275494210       1.995986265675      -0.382728771580
  Atom   8  H           0.156181200904       2.980402862687      -1.383855428119
  Atom   9  H          -0.369656415888       2.766460434844       0.583340919109
  Atom  10  H           1.554317264315       2.340369268416      -0.071660124705
  Atom  11  Cl          0.539139384066       0.139914163304       1.816673822868
  Atom  12  C          -2.410934755528      -1.161169321860       0.331330808662
  Atom  13  H          -3.071825940294      -1.741526732840      -0.367974101693
  Atom  14  H          -2.612243574186      -1.373332944797       1.317218143408
  Atom  15  C          -2.234428675280       0.191907840416      -0.113508175459
  Atom  16  H          -2.226125015719       0.962089490470       0.667900792453
  Atom  17  H          -2.771124355837       0.522611472635      -1.053365580419

-------------------------------------
-------------------------------------
-------------------------------------

Normal termination of GauOptimizer

 Recovered energy= -1336.45098273     dipole=      0.000000000000      0.000000000000      0.000000000000
 Energy=    -1336.45098     NIter=   0.
 Dipole moment=       0.000000       0.000000       0.000000
 Leave Link  402 at Mon Oct 14 21:32:00 2024, MaxMem=   104857600 cpu:              26.6 elap:               3.8
 (Enter /usr/local/bin/g16/l716.exe)
 Dipole        = 0.00000000D+00 0.00000000D+00 0.00000000D+00
 ***** Axes restored to original set *****
 -------------------------------------------------------------------
 Center     Atomic                   Forces (Hartrees/Bohr)
 Number     Number              X              Y              Z
 -------------------------------------------------------------------
      1       45           0.044080828    0.004676064    0.023092904
      2        1           0.016308183   -0.023045721   -0.029958560
      3        1          -0.013653474    0.003538566   -0.003997010
      4       15           0.010493949   -0.021792233    0.010343474
      5        1          -0.013453086   -0.009288860   -0.018689401
      6        1           0.000917548   -0.007223580    0.008283843
      7        1          -0.014466815    0.020483782    0.008809735
      8       15          -0.016582309   -0.011488843    0.018885645
      9        1           0.011999233   -0.002725885    0.009455578
     10        1           0.007723562    0.012531415   -0.014719998
     11        1          -0.004950424    0.000759379   -0.001803626
     12       17          -0.014115631    0.018689132   -0.028096765
     13        6           0.018167543   -0.020040905    0.087809413
     14        1          -0.023558557    0.001868448    0.000908806
     15        1          -0.026736581    0.012508336   -0.048990205
     16        6           0.033642183    0.021482563   -0.005597338
     17        1           0.004310583   -0.000567803   -0.002711434
     18        1          -0.020126720   -0.000363858   -0.013025065
 -------------------------------------------------------------------
 Cartesian Forces:  Max     0.087809413 RMS     0.021014630
 Leave Link  716 at Mon Oct 14 21:32:00 2024, MaxMem=   104857600 cpu:               0.1 elap:               0.0
 (Enter /usr/local/bin/g16/l103.exe)

 GradGradGradGradGradGradGradGradGradGradGradGradGradGradGradGradGradGrad
 Berny optimization.
 Using GDIIS optimizer.
 FormGI is forming the generalized inverse of G from B-inverse, IUseBI=4.
 Internal  Forces:  Max     0.103862946 RMS     0.016613412
 Search for a saddle point.
 Step number   2 out of a maximum of  108
 All quantities printed in internal units (Hartrees-Bohrs-Radians)
 Swapping is turned off.
 Update second derivatives using D2CorX and points    1    2
 ITU=  0  0
     Eigenvalues ---   -3.42522  -1.74155  -1.46153  -1.14900  -1.09686
     Eigenvalues ---   -0.81374  -0.75622  -0.61590  -0.45289  -0.34997
     Eigenvalues ---   -0.30618  -0.23449  -0.21121  -0.15475  -0.13867
     Eigenvalues ---   -0.10832  -0.07611  -0.06703  -0.04477  -0.04192
     Eigenvalues ---   -0.03103  -0.02161  -0.01401  -0.00417  -0.00162
     Eigenvalues ---    0.00851   0.01700   0.02815   0.03874   0.04317
     Eigenvalues ---    0.05961   0.08689   0.09257   0.11382   0.13188
     Eigenvalues ---    0.16567   0.19100   0.28838   0.30341   0.42638
     Eigenvalues ---    0.48447   0.57095   0.72199   0.98397   1.07894
     Eigenvalues ---    1.44750   1.81803   2.04753
 Eigenvectors required to have negative eigenvalues:
                          A9        A36       A27       A28       A2
   1                   -0.36226   0.34273  -0.29351   0.26566   0.24387
                          A29       A11       D43       D9        D11
   1                    0.18629   0.17425  -0.16602   0.15036  -0.14712
 Eigenvalue     2 is  -1.74D+00 should be greater than     0.000000 Eigenvector:
                          R3        A29       A27       A15       A33
   1                   -0.36241  -0.32998   0.31891  -0.23475   0.18793
                          D46       A31       R15       A9        D52
   1                    0.17777   0.17400   0.16610  -0.16504  -0.15196
 Eigenvalue     3 is  -1.46D+00 should be greater than     0.000000 Eigenvector:
                          R7        A28       R1        A27       A29
   1                    0.42063  -0.41286  -0.29771   0.25031   0.23372
                          D16       D46       D13       A32       R3
   1                    0.20348   0.17365   0.17349  -0.15529   0.13594
 Eigenvalue     4 is  -1.15D+00 should be greater than     0.000000 Eigenvector:
                          A14       A8        A29       R3        R13
   1                   -0.33442   0.25719   0.22425  -0.22411  -0.22363
                          A38       R14       A18       A15       D49
   1                   -0.20207  -0.19410   0.19132   0.17498  -0.17270
 Eigenvalue     5 is  -1.10D+00 should be greater than     0.000000 Eigenvector:
                          A20       R14       A29       A15       R8
   1                    0.35517   0.26238   0.25507  -0.23315   0.21667
                          R3        R15       A12       R9        A31
   1                    0.20583   0.19801   0.18314   0.17006  -0.16557
 Eigenvalue     6 is  -8.14D-01 should be greater than     0.000000 Eigenvector:
                          R6        A14       R13       A15       A27
   1                   -0.30571   0.28467  -0.26487  -0.21833  -0.21225
                          D49       A37       A30       A13       R16
   1                   -0.19936   0.18682  -0.18003  -0.17380  -0.16578
 Eigenvalue     7 is  -7.56D-01 should be greater than     0.000000 Eigenvector:
                          R14       R8        A27       A17       A26
   1                   -0.42011  -0.29304   0.29294  -0.26484  -0.25463
                          A15       A14       A6        R3        A19
   1                    0.22410   0.19302   0.17761   0.16142  -0.15975
 Eigenvalue     8 is  -6.16D-01 should be greater than     0.000000 Eigenvector:
                          A20       R15       A14       R11       A26
   1                    0.33491  -0.31132   0.22401  -0.20560   0.20276
                          R9        A36       A28       A21       R14
   1                    0.19252  -0.18857  -0.16800  -0.16540  -0.15973
 Eigenvalue     9 is  -4.53D-01 should be greater than     0.000000 Eigenvector:
                          R15       R16       A22       A21       R4
   1                   -0.43663  -0.33050  -0.29475   0.27305  -0.24849
                          A23       A28       A24       R13       R10
   1                   -0.22817   0.19153   0.18634  -0.16769  -0.15587
 Eigenvalue    10 is  -3.50D-01 should be greater than     0.000000 Eigenvector:
                          R7        R1        R4        R15       A23
   1                    0.32535   0.29218   0.25720  -0.23611  -0.22775
                          R9        A3        R14       R3        A21
   1                   -0.18806  -0.18516   0.18515  -0.17898   0.15524
 Eigenvalue    11 is  -3.06D-01 should be greater than     0.000000 Eigenvector:
                          R9        R4        R5        R1        R2
   1                   -0.34631  -0.27227  -0.26448  -0.22142   0.21898
                          A29       A24       A22       R13       A1
   1                    0.19574   0.18701  -0.17035   0.15779   0.14944
 Eigenvalue    12 is  -2.34D-01 should be greater than     0.000000 Eigenvector:
                          R11       R9        A30       D50       D26
   1                   -0.31679  -0.23667   0.22253  -0.21816  -0.21664
                          R13       D32       R1        R10       D35
   1                   -0.20702  -0.20363  -0.20186  -0.19113  -0.18974
 Eigenvalue    13 is  -2.11D-01 should be greater than     0.000000 Eigenvector:
                          R10       R11       D49       A27       A24
   1                   -0.36625  -0.25682   0.20312   0.19573  -0.19514
                          A22       A23       D14       D50       D31
   1                    0.18860  -0.18385   0.16884   0.16168   0.15463
 Eigenvalue    14 is  -1.55D-01 should be greater than     0.000000 Eigenvector:
                          R2        R5        R1        A19       A22
   1                   -0.36526   0.36349   0.27876   0.20310  -0.19765
                          R9        A2        R16       A27       A26
   1                   -0.19614  -0.17662   0.17416   0.16342  -0.16220
 Eigenvalue    15 is  -1.39D-01 should be greater than     0.000000 Eigenvector:
                          R5        R2        R4        R7        R16
   1                    0.49282   0.40071  -0.23978   0.20909   0.20585
                          A25       R9        A27       D7        D13
   1                   -0.16081   0.15854   0.15398  -0.15277  -0.14788
 Eigenvalue    16 is  -1.08D-01 should be greater than     0.000000 Eigenvector:
                          R11       R7        R8        A25       R16
   1                    0.33984  -0.33325  -0.26346  -0.25835   0.23766
                          R1        A23       A22       R15       D53
   1                   -0.22746  -0.21492   0.17477  -0.17290  -0.16459
 Eigenvalue    17 is  -7.61D-02 should be greater than     0.000000 Eigenvector:
                          R13       R2        R1        D23       R16
   1                    0.37083  -0.26503  -0.20746  -0.20350   0.19212
                          D20       D17       R11       A21       A16
   1                   -0.18258  -0.17739  -0.16473   0.16319   0.15571
 Eigenvalue    18 is  -6.70D-02 should be greater than     0.000000 Eigenvector:
                          R8        D9        A15       D52       D19
   1                    0.34839   0.23936   0.23383  -0.23291   0.20668
                          R12       D12       D3        D6        D54
   1                    0.19582   0.18767   0.18416   0.18389  -0.18024
 Eigenvalue    19 is  -4.48D-02 should be greater than     0.000000 Eigenvector:
                          R12       R6        R11       D42       D18
   1                    0.29409  -0.28607   0.25876  -0.19721  -0.19417
                          D21       R14       D25       D23       A37
   1                   -0.19195  -0.18927   0.15829  -0.15303  -0.14061
 Eigenvalue    20 is  -4.19D-02 should be greater than     0.000000 Eigenvector:
                          D54       R17       R10       A25       A26
   1                    0.30164  -0.29883   0.25721  -0.20558  -0.20247
                          R9        R11       D36       D52       D27
   1                   -0.20131  -0.17271  -0.17259   0.16938  -0.16551
 Eigenvalue    21 is  -3.10D-02 should be greater than     0.000000 Eigenvector:
                          R6        D50       R16       R13       D24
   1                    0.28096   0.27317  -0.26966  -0.22209  -0.20133
                          R5        R12       D51       R11       R4
   1                    0.19789   0.19742   0.19106  -0.18433   0.18250
 Eigenvalue    22 is  -2.16D-02 should be greater than     0.000000 Eigenvector:
                          D22       R6        R11       R12       D31
   1                    0.34229   0.31743   0.28172  -0.25197   0.18562
                          R13       R3        R10       D24       D41
   1                    0.17898  -0.17856  -0.17728   0.17474  -0.14098
 Eigenvalue    23 is  -1.40D-02 should be greater than     0.000000 Eigenvector:
                          D24       R12       D51       D23       R3
   1                   -0.36022  -0.24793  -0.24462  -0.24405   0.21691
                          R10       R13       D53       D22       D25
   1                   -0.21530   0.21507   0.19955  -0.19168   0.16142
 Eigenvalue    24 is  -4.17D-03 should be greater than     0.000000 Eigenvector:
                          R17       R12       A34       D42       D54
   1                   -0.61571   0.26475   0.22143   0.18576  -0.18138
                          D21       R14       D51       A31       D45
   1                    0.15680  -0.15632  -0.15341  -0.14994   0.14561
 Eigenvalue    25 is  -1.62D-03 should be greater than     0.000000 Eigenvector:
                          D51       D54       R10       D23       R12
   1                   -0.33255  -0.29498   0.26099   0.25233   0.23428
                          A31       A34       R17       D22       R8
   1                   -0.22270   0.21165   0.19583   0.19190  -0.18080
 Cosine:  0.948 <  0.970
 Cut down GDIIS temporarily because of the cosine check. E 6
     Eigenvalues ---   -3.42522  -1.74155  -1.46153  -1.14900  -1.09686
     Eigenvalues ---   -0.81374  -0.75622  -0.61590  -0.45289  -0.34997
     Eigenvalues ---   -0.30618  -0.23449  -0.21121  -0.15475  -0.13867
     Eigenvalues ---   -0.10832  -0.07611  -0.06703  -0.04477  -0.04192
     Eigenvalues ---   -0.03103  -0.02161  -0.01401  -0.00417  -0.00162
     Eigenvalues ---    0.00851   0.01700   0.02815   0.03874   0.04317
     Eigenvalues ---    0.05961   0.08689   0.09257   0.11382   0.13188
     Eigenvalues ---    0.16567   0.19100   0.28838   0.30341   0.42638
     Eigenvalues ---    0.48447   0.57095   0.72199   0.98397   1.07894
     Eigenvalues ---    1.44750   1.81803   2.04753
 Eigenvectors required to have negative eigenvalues:
                          A9        A36       A27       A28       A2
   1                   -0.36226   0.34273  -0.29351   0.26566   0.24387
                          A29       A11       D43       D9        D11
   1                    0.18629   0.17425  -0.16602   0.15036  -0.14712
 Eigenvalue     2 is  -1.74D+00 should be greater than     0.000000 Eigenvector:
                          R3        A29       A27       A15       A33
   1                   -0.36241  -0.32998   0.31891  -0.23475   0.18793
                          D46       A31       R15       A9        D52
   1                    0.17777   0.17400   0.16610  -0.16504  -0.15196
 Eigenvalue     3 is  -1.46D+00 should be greater than     0.000000 Eigenvector:
                          R7        A28       R1        A27       A29
   1                    0.42063  -0.41286  -0.29771   0.25031   0.23372
                          D16       D46       D13       A32       R3
   1                    0.20348   0.17365   0.17349  -0.15529   0.13594
 Eigenvalue     4 is  -1.15D+00 should be greater than     0.000000 Eigenvector:
                          A14       A8        A29       R3        R13
   1                   -0.33442   0.25719   0.22425  -0.22411  -0.22363
                          A38       R14       A18       A15       D49
   1                   -0.20207  -0.19410   0.19132   0.17498  -0.17270
 Eigenvalue     5 is  -1.10D+00 should be greater than     0.000000 Eigenvector:
                          A20       R14       A29       A15       R8
   1                    0.35517   0.26238   0.25507  -0.23315   0.21667
                          R3        R15       A12       R9        A31
   1                    0.20583   0.19801   0.18314   0.17006  -0.16557
 Eigenvalue     6 is  -8.14D-01 should be greater than     0.000000 Eigenvector:
                          R6        A14       R13       A15       A27
   1                   -0.30571   0.28467  -0.26487  -0.21833  -0.21225
                          D49       A37       A30       A13       R16
   1                   -0.19936   0.18682  -0.18003  -0.17380  -0.16578
 Eigenvalue     7 is  -7.56D-01 should be greater than     0.000000 Eigenvector:
                          R14       R8        A27       A17       A26
   1                   -0.42011  -0.29304   0.29294  -0.26484  -0.25463
                          A15       A14       A6        R3        A19
   1                    0.22410   0.19302   0.17761   0.16142  -0.15975
 Eigenvalue     8 is  -6.16D-01 should be greater than     0.000000 Eigenvector:
                          A20       R15       A14       R11       A26
   1                    0.33491  -0.31132   0.22401  -0.20560   0.20276
                          R9        A36       A28       A21       R14
   1                    0.19252  -0.18857  -0.16800  -0.16540  -0.15973
 Eigenvalue     9 is  -4.53D-01 should be greater than     0.000000 Eigenvector:
                          R15       R16       A22       A21       R4
   1                   -0.43663  -0.33050  -0.29475   0.27305  -0.24849
                          A23       A28       A24       R13       R10
   1                   -0.22817   0.19153   0.18634  -0.16769  -0.15587
 Eigenvalue    10 is  -3.50D-01 should be greater than     0.000000 Eigenvector:
                          R7        R1        R4        R15       A23
   1                    0.32535   0.29218   0.25720  -0.23611  -0.22775
                          R9        A3        R14       R3        A21
   1                   -0.18806  -0.18516   0.18515  -0.17898   0.15524
 Eigenvalue    11 is  -3.06D-01 should be greater than     0.000000 Eigenvector:
                          R9        R4        R5        R1        R2
   1                   -0.34631  -0.27227  -0.26448  -0.22142   0.21898
                          A29       A24       A22       R13       A1
   1                    0.19574   0.18701  -0.17035   0.15779   0.14944
 Eigenvalue    12 is  -2.34D-01 should be greater than     0.000000 Eigenvector:
                          R11       R9        A30       D50       D26
   1                   -0.31679  -0.23667   0.22253  -0.21816  -0.21664
                          R13       D32       R1        R10       D35
   1                   -0.20702  -0.20363  -0.20186  -0.19113  -0.18974
 Eigenvalue    13 is  -2.11D-01 should be greater than     0.000000 Eigenvector:
                          R10       R11       D49       A27       A24
   1                   -0.36625  -0.25682   0.20312   0.19573  -0.19514
                          A22       A23       D14       D50       D31
   1                    0.18860  -0.18385   0.16884   0.16168   0.15463
 Eigenvalue    14 is  -1.55D-01 should be greater than     0.000000 Eigenvector:
                          R2        R5        R1        A19       A22
   1                   -0.36526   0.36349   0.27876   0.20310  -0.19765
                          R9        A2        R16       A27       A26
   1                   -0.19614  -0.17662   0.17416   0.16342  -0.16220
 Eigenvalue    15 is  -1.39D-01 should be greater than     0.000000 Eigenvector:
                          R5        R2        R4        R7        R16
   1                    0.49282   0.40071  -0.23978   0.20909   0.20585
                          A25       R9        A27       D7        D13
   1                   -0.16081   0.15854   0.15398  -0.15277  -0.14788
 Eigenvalue    16 is  -1.08D-01 should be greater than     0.000000 Eigenvector:
                          R11       R7        R8        A25       R16
   1                    0.33984  -0.33325  -0.26346  -0.25835   0.23766
                          R1        A23       A22       R15       D53
   1                   -0.22746  -0.21492   0.17477  -0.17290  -0.16459
 Eigenvalue    17 is  -7.61D-02 should be greater than     0.000000 Eigenvector:
                          R13       R2        R1        D23       R16
   1                    0.37083  -0.26503  -0.20746  -0.20350   0.19212
                          D20       D17       R11       A21       A16
   1                   -0.18258  -0.17739  -0.16473   0.16319   0.15571
 Eigenvalue    18 is  -6.70D-02 should be greater than     0.000000 Eigenvector:
                          R8        D9        A15       D52       D19
   1                    0.34839   0.23936   0.23383  -0.23291   0.20668
                          R12       D12       D3        D6        D54
   1                    0.19582   0.18767   0.18416   0.18389  -0.18024
[...]
   D32       -1.00161   0.00006   0.00100   0.00024   0.00123  -1.00038
   D33        1.06380   0.00001   0.00060   0.00010   0.00069   1.06449
   D34       -1.49195   0.00008   0.00096   0.00051   0.00145  -1.49049
   D35        0.60530   0.00011   0.00119   0.00022   0.00139   0.60669
   D36        2.67070   0.00005   0.00079   0.00008   0.00085   2.67156
   D37        0.04370  -0.00018   0.00242   0.00016   0.00248   0.04619
   D38        2.03065  -0.00008   0.00392  -0.00024   0.00358   2.03423
   D39       -1.95396  -0.00008   0.00270   0.00033   0.00293  -1.95103
   D40        1.62017  -0.00013   0.00129  -0.00059   0.00069   1.62085
   D41       -2.67607  -0.00003   0.00278  -0.00099   0.00178  -2.67429
   D42       -0.37750  -0.00003   0.00157  -0.00042   0.00114  -0.37636
   D43       -3.09599  -0.00015   0.00187  -0.00003   0.00194  -3.09405
   D44       -1.10904  -0.00005   0.00337  -0.00043   0.00304  -1.10600
   D45        1.18953  -0.00005   0.00215   0.00014   0.00239   1.19192
   D46       -1.53957  -0.00029  -0.00024  -0.00003  -0.00027  -1.53984
   D47        0.44738  -0.00019   0.00126  -0.00043   0.00082   0.44820
   D48        2.74595  -0.00019   0.00004   0.00014   0.00018   2.74613
   D49       -2.06007   0.00039  -0.00218   0.00004  -0.00214  -2.06221
   D50        2.31271   0.00013  -0.00269   0.00010  -0.00258   2.31013
   D51       -0.06160   0.00008  -0.00415  -0.00036  -0.00451  -0.06611
   D52        1.90898   0.00023  -0.00370   0.00053  -0.00317   1.90580
   D53       -0.00143  -0.00002  -0.00421   0.00060  -0.00362  -0.00505
   D54       -2.37574  -0.00008  -0.00568   0.00013  -0.00555  -2.38129
         Item               Value     Threshold  Converged?
 Maximum Force            0.000827     0.002500     YES
 RMS     Force            0.000188     0.001667     YES
 Maximum Displacement     0.008834     0.010000     YES
 RMS     Displacement     0.002225     0.006667     YES
 Predicted change in Energy=-3.802810D-06
 Optimization completed.
    -- Stationary point found.
                           ----------------------------
                           !   Optimized Parameters   !
                           ! (Angstroms and Degrees)  !
 --------------------------                            --------------------------
 ! Name  Definition              Value          Derivative Info.                !
 --------------------------------------------------------------------------------
 ! R1    R(1,2)                  1.8458         -DE/DX =    0.0001              !
 ! R2    R(1,3)                  1.5581         -DE/DX =    0.0002              !
 ! R3    R(1,4)                  2.3767         -DE/DX =    0.0008              !
 ! R4    R(1,8)                  2.2438         -DE/DX =    0.0002              !
 ! R5    R(1,12)                 2.4686         -DE/DX =   -0.0002              !
 ! R6    R(1,16)                 2.0592         -DE/DX =    0.0002              !
 ! R7    R(4,5)                  1.4407         -DE/DX =   -0.0001              !
 ! R8    R(4,6)                  1.4478         -DE/DX =    0.0001              !
 ! R9    R(4,7)                  1.4372         -DE/DX =    0.0003              !
 ! R10   R(8,9)                  1.439          -DE/DX =    0.0                 !
 ! R11   R(8,10)                 1.4291         -DE/DX =    0.0                 !
 ! R12   R(8,11)                 1.4321         -DE/DX =    0.0                 !
 ! R13   R(13,14)                1.0981         -DE/DX =    0.0001              !
 ! R14   R(13,15)                1.0977         -DE/DX =    0.0001              !
 ! R15   R(13,16)                1.4843         -DE/DX =   -0.0002              !
 ! R16   R(16,17)                1.0955         -DE/DX =    0.0001              !
 ! R17   R(16,18)                1.0953         -DE/DX =    0.0                 !
 ! A1    A(2,1,3)               89.9121         -DE/DX =   -0.0001              !
 ! A2    A(2,1,4)               95.3487         -DE/DX =   -0.0004              !
 ! A3    A(2,1,8)              164.7791         -DE/DX =    0.0001              !
 ! A4    A(2,1,12)              91.4262         -DE/DX =    0.0001              !
 ! A5    A(2,1,16)              69.4147         -DE/DX =    0.0                 !
 ! A6    A(3,1,4)               92.0837         -DE/DX =    0.0003              !
 ! A7    A(3,1,8)               89.8896         -DE/DX =    0.0                 !
 ! A8    A(3,1,16)              88.8855         -DE/DX =   -0.0003              !
 ! A9    A(4,1,8)               99.868          -DE/DX =    0.0003              !
 ! A10   A(4,1,12)              87.1858         -DE/DX =   -0.0001              !
 ! A11   A(8,1,12)              88.979          -DE/DX =   -0.0001              !
 ! A12   A(8,1,16)              95.3648         -DE/DX =    0.0001              !
 ! A13   A(12,1,16)             92.1549         -DE/DX =    0.0001              !
 ! A14   A(1,4,5)              116.9341         -DE/DX =    0.0001              !
 ! A15   A(1,4,6)              120.8689         -DE/DX =   -0.0001              !
 ! A16   A(1,4,7)              118.7603         -DE/DX =    0.0004              !
 ! A17   A(5,4,6)               99.0898         -DE/DX =   -0.0001              !
 ! A18   A(5,4,7)               98.9786         -DE/DX =   -0.0003              !
 ! A19   A(6,4,7)               97.9147         -DE/DX =   -0.0002              !
 ! A20   A(1,8,9)              119.5659         -DE/DX =    0.0001              !
 ! A21   A(1,8,10)             115.7318         -DE/DX =   -0.0001              !
 ! A22   A(1,8,11)             117.8532         -DE/DX =    0.0001              !
 ! A23   A(9,8,10)             100.3392         -DE/DX =    0.0001              !
 ! A24   A(9,8,11)              99.8609         -DE/DX =   -0.0001              !
 ! A25   A(10,8,11)            100.0922         -DE/DX =    0.0                 !
 ! A26   A(14,13,15)           112.1402         -DE/DX =    0.0                 !
 ! A27   A(14,13,16)           115.4668         -DE/DX =   -0.0003              !
 ! A28   A(15,13,16)           114.5704         -DE/DX =    0.0004              !
 ! A29   A(1,16,13)             80.3249         -DE/DX =    0.0001              !
 ! A30   A(1,16,17)            111.6394         -DE/DX =    0.0002              !
 ! A31   A(1,16,18)            116.1732         -DE/DX =   -0.0003              !
 ! A32   A(13,16,17)           115.6189         -DE/DX =    0.0001              !
 ! A33   A(13,16,18)           116.1304         -DE/DX =   -0.0001              !
 ! A34   A(17,16,18)           113.0959         -DE/DX =    0.0001              !
 ! A35   L(3,1,12,2,-1)        181.3382         -DE/DX =    0.0001              !
 ! A36   L(4,1,16,2,-1)        164.7634         -DE/DX =   -0.0004              !
 ! A37   L(3,1,12,2,-2)        179.3908         -DE/DX =    0.0003              !
 ! A38   L(4,1,16,2,-2)        179.0729         -DE/DX =    0.0                 !
 ! D1    D(2,1,4,5)            -42.3332         -DE/DX =    0.0001              !
 ! D2    D(2,1,4,6)             78.3407         -DE/DX =    0.0                 !
 ! D3    D(2,1,4,7)           -160.9237         -DE/DX =    0.0001              !
 ! D4    D(3,1,4,5)           -132.44           -DE/DX =    0.0002              !
 ! D5    D(3,1,4,6)            -11.7661         -DE/DX =    0.0                 !
 ! D6    D(3,1,4,7)            108.9695         -DE/DX =    0.0001              !
 ! D7    D(8,1,4,5)            137.3095         -DE/DX =    0.0001              !
 ! D8    D(8,1,4,6)           -102.0165         -DE/DX =    0.0                 !
 ! D9    D(8,1,4,7)             18.719          -DE/DX =    0.0001              !
 ! D10   D(12,1,4,5)            48.8372         -DE/DX =    0.0003              !
 ! D11   D(12,1,4,6)           169.5111         -DE/DX =    0.0001              !
 ! D12   D(12,1,4,7)           -69.7534         -DE/DX =    0.0002              !
 ! D13   D(5,4,16,13)          -38.1154         -DE/DX =    0.0                 !
 ! D14   D(5,4,16,17)           72.5015         -DE/DX =   -0.0001              !
 ! D15   D(5,4,16,18)         -148.5727         -DE/DX =    0.0001              !
 ! D16   D(6,4,16,13)           76.534          -DE/DX =   -0.0003              !
 ! D17   D(6,4,16,17)         -172.849          -DE/DX =   -0.0003              !
 ! D18   D(6,4,16,18)          -33.9232         -DE/DX =   -0.0001              !
 ! D19   D(7,4,16,13)         -156.9152         -DE/DX =    0.0                 !
 ! D20   D(7,4,16,17)          -46.2983         -DE/DX =    0.0                 !
 ! D21   D(7,4,16,18)           92.6276         -DE/DX =    0.0002              !
 ! D22   D(2,1,8,9)            -85.8712         -DE/DX =    0.0                 !
 ! D23   D(2,1,8,10)            34.292          -DE/DX =    0.0                 !
 ! D24   D(2,1,8,11)           152.6309         -DE/DX =   -0.0001              !
 ! D25   D(3,1,8,9)              3.3881         -DE/DX =   -0.0002              !
 ! D26   D(3,1,8,10)           123.5513         -DE/DX =   -0.0002              !
 ! D27   D(3,1,8,11)          -118.1098         -DE/DX =   -0.0003              !
 ! D28   D(4,1,8,9)             95.4838         -DE/DX =    0.0001              !
 ! D29   D(4,1,8,10)          -144.3529         -DE/DX =    0.0002              !
 ! D30   D(4,1,8,11)           -26.014          -DE/DX =    0.0001              !
 ! D31   D(12,1,8,9)          -177.551          -DE/DX =    0.0                 !
 ! D32   D(12,1,8,10)          -57.3878         -DE/DX =    0.0001              !
 ! D33   D(12,1,8,11)           60.9512         -DE/DX =    0.0                 !
 ! D34   D(16,1,8,9)           -85.4822         -DE/DX =    0.0001              !
 ! D35   D(16,1,8,10)           34.6811         -DE/DX =    0.0001              !
 ! D36   D(16,1,8,11)          153.02           -DE/DX =    0.0                 !
 ! D37   D(2,1,16,13)            2.504          -DE/DX =   -0.0002              !
 ! D38   D(2,1,16,17)          116.3477         -DE/DX =   -0.0001              !
 ! D39   D(2,1,16,18)         -111.9538         -DE/DX =   -0.0001              !
 ! D40   D(3,1,16,13)           92.8287         -DE/DX =   -0.0001              !
 ! D41   D(3,1,16,17)         -153.3276         -DE/DX =    0.0                 !
 ! D42   D(3,1,16,18)          -21.6291         -DE/DX =    0.0                 !
 ! D43   D(8,1,16,13)         -177.3869         -DE/DX =   -0.0002              !
 ! D44   D(8,1,16,17)          -63.5432         -DE/DX =    0.0                 !
 ! D45   D(8,1,16,18)           68.1553         -DE/DX =   -0.0001              !
 ! D46   D(12,1,16,13)         -88.2106         -DE/DX =   -0.0003              !
 ! D47   D(12,1,16,17)          25.6331         -DE/DX =   -0.0002              !
 ! D48   D(12,1,16,18)         157.3315         -DE/DX =   -0.0002              !
 ! D49   D(14,13,16,1)        -118.0336         -DE/DX =    0.0004              !
 ! D50   D(14,13,16,17)        132.5083         -DE/DX =    0.0001              !
 ! D51   D(14,13,16,18)         -3.5295         -DE/DX =    0.0001              !
 ! D52   D(15,13,16,1)         109.3762         -DE/DX =    0.0002              !
 ! D53   D(15,13,16,17)         -0.0819         -DE/DX =    0.0                 !
 ! D54   D(15,13,16,18)       -136.1198         -DE/DX =   -0.0001              !
 --------------------------------------------------------------------------------
 Largest change from initial coordinates is atom   14       0.282 Angstoms.
 GradGradGradGradGradGradGradGradGradGradGradGradGradGradGradGradGradGrad

 Leave Link  103 at Mon Oct 14 21:33:44 2024, MaxMem=   104857600 cpu:               0.5 elap:               0.1
 (Enter /usr/local/bin/g16/l202.exe)
                          Input orientation:                          
 ---------------------------------------------------------------------
 Center     Atomic      Atomic             Coordinates (Angstroms)
 Number     Number       Type             X           Y           Z
 ---------------------------------------------------------------------
      1         45           0       -0.023478   -0.223211    0.030113
      2          1           0        0.427098   -1.604054   -1.108791
      3          1           0        0.703939   -0.953012    1.198854
      4         15           0       -2.128154   -1.131470    0.657703
      5          1           0       -2.928468   -1.709558   -0.391536
      6          1           0       -2.215493   -2.202184    1.628301
      7          1           0       -3.112951   -0.259130    1.236212
      8         15           0       -0.047650    1.670505    1.233421
      9          1           0        0.593441    1.701617    2.521332
     10          1           0        0.562194    2.805881    0.615848
     11          1           0       -1.320965    2.226958    1.579777
     12         17           0       -1.211945    0.963419   -1.779205
     13          6           0        1.451496   -1.147716   -1.514516
     14          1           0        2.129026   -1.990447   -1.323402
     15          1           0        1.207155   -1.046721   -2.579909
     16          6           0        1.809987    0.125061   -0.840158
     17          1           0        1.793055    1.018185   -1.474257
     18          1           0        2.676778    0.089221   -0.171512
 ---------------------------------------------------------------------
                    Distance matrix (angstroms):
                    1          2          3          4          5
     1  Rh   0.000000
     2  H    1.845764   0.000000
     3  H    1.558108   2.413653   0.000000
     4  P    2.376650   3.142157   2.888848   0.000000
     5  H    3.290286   3.432988   4.036841   1.440691   0.000000
     6  H    3.357897   3.851326   3.204363   1.447797   2.197898
     7  H    3.316747   4.454189   3.879628   1.437175   2.187999
     8  P    2.243812   4.053896   2.729271   3.537091   4.729104
     9  H    3.208072   4.912527   2.967863   4.348170   5.703049
    10  H    3.140302   4.737104   3.806476   4.768905   5.795579
    11  H    3.176203   4.996076   3.789136   3.575027   4.686823
    12  Cl   2.468638   3.118947   4.026431   3.341635   3.466538
    13  C    2.327259   1.192581   2.821192   4.187206   4.556406
    14  H    3.096514   1.758385   3.077160   4.773490   5.150293
    15  H    3.000807   1.755932   3.813274   4.649044   4.725644
    16  C    2.059189   2.230333   2.557958   4.396751   5.100985
    17  H    2.665330   2.979185   3.495327   4.954004   5.559285
    18  H    2.725739   2.967614   2.618443   5.026436   5.890909
                    6          7          8          9         10
     6  H    0.000000
     7  H    2.175919   0.000000
     8  P    4.455692   3.622095   0.000000
     9  H    4.891552   4.385591   1.438986   0.000000
    10  H    5.815610   4.825539   1.429120   2.202554   0.000000
    11  H    4.518831   3.083810   1.432108   2.197148   2.193307
    12  Cl   4.758072   3.768447   3.306277   4.722179   3.504070
    13  C    4.943279   5.402802   4.212002   5.014282   4.578235
    14  H    5.256636   6.085015   4.967678   5.547192   5.405591
    15  H    5.546048   5.817766   4.847612   5.826892   5.046918
    16  C    5.264394   5.356700   3.184170   3.907061   3.296018
    17  H    6.005423   5.748659   3.338448   4.227397   3.013206
    18  H    5.694224   5.968585   3.449175   3.767164   3.531522
                   11         12         13         14         15
    11  H    0.000000
    12  Cl   3.590429   0.000000
    13  C    5.352534   3.408939   0.000000
    14  H    6.173928   4.482763   1.098075   0.000000
    15  H    5.866120   3.245587   1.097709   1.821888   0.000000
    16  C    4.480728   3.273641   1.484330   2.193327   2.182479
    17  H    4.526078   3.020930   2.193037   3.031089   2.414454
    18  H    4.859927   4.297798   2.198861   2.439651   3.041469
                   16         17         18
    16  C    0.000000
    17  H    1.095463   0.000000
    18  H    1.095308   1.827863   0.000000
 Stoichiometry    C2H12ClP2Rh
 Framework group  C1[X(C2H12ClP2Rh)]
 Deg. of freedom    48
 Full point group                 C1      NOp   1
 RotChk:  IX=0 Diff= 1.02D-14
 Largest Abelian subgroup         C1      NOp   1
 Largest concise Abelian subgroup C1      NOp   1
                         Standard orientation:                         
 ---------------------------------------------------------------------
 Center     Atomic      Atomic             Coordinates (Angstroms)
 Number     Number       Type             X           Y           Z
 ---------------------------------------------------------------------
      1         45           0       -0.136718   -0.075341   -0.382953
      2          1           0       -0.877747   -1.737229   -0.692545
      3          1           0       -0.140755    0.209182   -1.914857
      4         15           0        2.118182   -0.824094   -0.440073
      5          1           0        2.411703   -2.062974    0.234178
      6          1           0        2.782140   -1.086312   -1.699643
      7          1           0        3.135705    0.000140    0.152177
      8         15           0        0.193017    2.107733    0.017246
      9          1           0        0.220601    3.035010   -1.082790
     10          1           0       -0.775017    2.737326    0.859212
     11          1           0        1.397770    2.490044    0.690553
     12         17           0       -0.083146   -0.484403    2.050969
     13          6           0       -2.023382   -1.422029   -0.590472
     14          1           0       -2.420007   -1.822561   -1.532826
     15          1           0       -2.313684   -2.033527    0.273681
     16          6           0       -2.192635    0.039857   -0.396874
     17          1           0       -2.586693    0.346020    0.578329
     18          1           0       -2.640127    0.588518   -1.232589
 ---------------------------------------------------------------------
 Rotational constants (GHZ):           1.2053495           1.0337396           0.9480173
 Leave Link  202 at Mon Oct 14 21:33:44 2024, MaxMem=   104857600 cpu:               0.0 elap:               0.0
 (Enter /usr/local/bin/g16/l601.exe)
 Leave Link  601 at Mon Oct 14 21:33:44 2024, MaxMem=   104857600 cpu:               0.1 elap:               0.0
 (Enter /usr/local/bin/g16/l9999.exe)
 1\1\GINC-LAPTOP-F8G6GB8F\FTS\RExternal='python runner.py'\ZDO\C2H12Cl1
 P2Rh1\TANGKUN\14-Oct-2024\0\\#P opt(ts,calcfc,noeigen,loose,nomicro,gd
 iis) external="python runner.py"\\Title Card Required\\0,1\Rh,-0.02347
 79835,-0.2232111309,0.0301126075\H,0.4270976082,-1.6040537642,-1.10879
 10222\H,0.7039390231,-0.9530117885,1.1988535175\P,-2.1281544379,-1.131
 4699674,0.6577031556\H,-2.928468035,-1.7095582818,-0.3915363251\H,-2.2
 154930509,-2.2021842699,1.6283005273\H,-3.1129510158,-0.2591302672,1.2
 362119567\P,-0.0476500285,1.6705046379,1.2334207483\H,0.5934412094,1.7
 016169727,2.5213322892\H,0.5621935548,2.8058806958,0.6158480303\H,-1.3
 209649568,2.2269581819,1.57977732\Cl,-1.2119446188,0.9634191714,-1.779
 2050105\C,1.4514959125,-1.1477157251,-1.5145162118\H,2.1290260997,-1.9
 904469308,-1.323401614\H,1.2071548939,-1.0467210474,-2.5799094866\C,1.
 8099871329,0.1250610569,-0.8401579383\H,1.7930554877,1.0181854825,-1.4
 742565964\H,2.6767783649,0.0892206341,-0.1715123275\\Version=ES64L-G16
 RevA.03\HF=-1336.5115617\RMSD=0.000e+00\RMSF=1.838e-04\Dipole=0.,0.,0.
 \PG=C01 [X(C2H12Cl1P2Rh1)]\\@


 I DON'T EXACTLY UNDERSTAND WHAT YOU ARE SAYING,
 BUT YOU ARE ABSOLUTELY RIGHT.
     M.S.GORDON, IN A NDSU FACULTY MEETING
 Job cpu time:       0 days  0 hours 12 minutes 54.5 seconds.
 Elapsed time:       0 days  0 hours  1 minutes 52.9 seconds.
 File lengths (MBytes):  RWF=      6 Int=      0 D2E=      0 Chk=      2 Scr=      1
 Normal termination of Gaussian 16 at Mon Oct 14 21:33:44 2024.
